ITEM: TIMESTEP
4000000
ITEM: NUMBER OF ATOMS
4768
ITEM: BOX BOUNDS xy xz yz pp pp pp
0.0000000000000000e+00 2.4433001000000001e+01 0.0000000000000000e+00
0.0000000000000000e+00 2.4433001000000001e+01 0.0000000000000000e+00
0.0000000000000000e+00 8.7675772958794497e+01 0.0000000000000000e+00
ITEM: ATOMS id mol type q x y z
1 1 1 -0.834 8.54415 17.1118 74.6169
2 1 1 -0.834 5.45671 19.4873 15.1455
3 1 1 -0.834 4.93811 1.94561 69.225
4 1 1 -0.834 10.4333 9.09659 70.8242
5 1 1 -0.834 17.2999 5.23605 49.2521
6 1 1 -0.834 8.00566 5.63826 26.6525
7 1 1 -0.834 22.5245 20.3214 7.06514
8 1 1 -0.834 22.9967 6.22812 62.8834
9 1 1 -0.834 3.4894 20.1082 54.1143
10 1 1 -0.834 12.4019 17.1071 9.54627
11 1 1 -0.834 20.2599 6.76996 80.9438
12 1 1 -0.834 1.76532 11.8216 70.7688
13 1 1 -0.834 21.4809 11.1998 56.7072
14 1 1 -0.834 24.3616 19.2486 47.4352
15 1 1 -0.834 3.34554 14.2942 68.6344
16 1 1 -0.834 10.3626 18.743 42.4705
17 1 1 -0.834 4.84594 8.78214 68.8371
18 1 1 -0.834 7.87081 5.08444 5.55667
19 1 1 -0.834 20.0809 3.00711 84.0874
20 1 1 -0.834 22.7179 7.59921 10.917
21 1 1 -0.834 21.5847 5.96405 12.9442
22 1 1 -0.834 18.5611 6.84775 65.9731
23 1 1 -0.834 0.652582 21.2222 29.1689
24 1 1 -0.834 12.729 12.596 52.4425
25 1 1 -0.834 8.02195 8.08904 6.40451
26 1 1 -0.834 3.12511 9.39397 49.7539
27 1 1 -0.834 8.2476 18.1424 71.5852
28 1 1 -0.834 8.05827 19.7683 35.9314
29 1 1 -0.834 14.2912 19.1055 47.6985
30 1 1 -0.834 1.40984 0.733589 5.2396
31 1 1 -0.834 13.0778 18.1732 37.9376
32 1 1 -0.834 15.2048 8.71339 64.873
33 1 1 -0.834 7.76277 2.33351 64.5323
34 1 1 -0.834 5.52981 5.53093 62.8337
35 1 1 -0.834 19.9345 2.18365 46.467
36 1 1 -0.834 9.62967 22.8164 51.9494
37 1 1 -0.834 19.5394 6.06168 58.5125
38 1 1 -0.834 21.4897 23.6679 78.2341
39 1 1 -0.834 12.5272 7.93997 63.7233
40 1 1 -0.834 18.6559 14.0038 36.4278
41 1 1 -0.834 2.89968 11.8503 53.4436
42 1 1 -0.834 6.59915 4.85913 69.34
43 1 1 -0.834 2.20962 23.5796 47.6081
44 1 1 -0.834 18.1871 5.05622 16.5538
45 1 1 -0.834 13.3878 24.1742 51.9035
46 1 1 -0.834 6.0956 8.07523 46.2542
47 1 1 -0.834 11.5262 3.79073 59.6831
48 1 1 -0.834 5.17894 20.2388 41.9539
49 1 1 -0.834 15.5872 19.088 53.6733
50 1 1 -0.834 23.5512 14.6343 64.7812
51 1 1 -0.834 20.8463 7.33996 48.7258
52 1 1 -0.834 19.1861 15.2616 32.3666
53 1 1 -0.834 16.2677 9.9887 46.551
54 1 1 -0.834 15.1154 16.7492 48.5378
55 1 1 -0.834 19.9744 8.06722 43.869
56 1 1 -0.834 7.66464 11.5909 46.2058
57 1 1 -0.834 1.74769 1.17148 56.7097
58 1 1 -0.834 20.4802 22.6698 7.2195
59 1 1 -0.834 2.44311 10.339 68.5283
60 1 1 -0.834 1.84666 0.179325 66.0728
61 1 1 -0.834 13.8226 20.5933 39.8346
62 1 1 -0.834 12.391 11.0715 79.8674
63 1 1 -0.834 1.77269 14.5267 48.5496
64 1 1 -0.834 5.36031 22.3051 53.6118
65 1 1 -0.834 23.3986 20.238 76.9617
66 1 1 -0.834 15.0622 1.59207 75.3444
67 1 1 -0.834 0.313512 0.591493 48.5542
68 1 1 -0.834 13.9604 0.280004 16.9254
69 1 1 -0.834 9.57545 1.68711 15.1482
70 1 1 -0.834 12.1786 7.47995 27.2697
71 1 1 -0.834 3.97105 18.4915 68.74
72 1 1 -0.834 2.69726 13.7361 55.3897
73 1 1 -0.834 6.46716 2.08175 55.3683
74 1 1 -0.834 9.25479 2.40649 75.2521
75 1 1 -0.834 4.11241 17.9508 24.6418
76 1 1 -0.834 22.8765 12.0224 75.9035
77 1 1 -0.834 16.0666 24.2525 71.5174
78 1 1 -0.834 23.227 21.8709 72.1469
79 1 1 -0.834 16.058 2.46856 56.3184
80 1 1 -0.834 4.03781 17.0272 51.35
81 1 1 -0.834 20.5403 5.43752 17.9188
82 1 1 -0.834 12.5816 14.521 62.8507
83 1 1 -0.834 14.8885 4.90215 42.3616
84 1 1 -0.834 9.89209 23.3494 13.4139
85 1 1 -0.834 1.34776 7.16443 77.0939
86 1 1 -0.834 1.10115 17.2374 19.2814
87 1 1 -0.834 16.6461 21.5739 74.8015
88 1 1 -0.834 7.95548 13.9284 76.821
89 1 1 -0.834 0.539024 16.0311 23.1511
90 1 1 -0.834 11.3758 21.5635 67.4183
91 1 1 -0.834 16.438 15.0668 72.951
92 1 1 -0.834 22.5136 9.85309 49.5275
93 1 1 -0.834 19.0545 20.8286 30.2875
94 1 1 -0.834 14.6822 10.5019 34.3311
95 1 1 -0.834 7.64874 24.1922 11.3187
96 1 1 -0.834 6.08339 2.52941 80.8998
97 1 1 -0.834 21.3992 12.992 17.0419
98 1 1 -0.834 19.2424 21.6639 42.4141
99 1 1 -0.834 24.3098 1.62574 31.8569
100 1 1 -0.834 18.5373 8.92478 13.2404
101 1 1 -0.834 13.6987 18.5324 73.1085
102 1 1 -0.834 20.1064 17.0627 43.5811
103 1 1 -0.834 21.2704 6.58715 54.5842
104 1 1 -0.834 0.531164 16.0616 71.1789
105 1 1 -0.834 6.36928 17.1301 58.2496
106 1 1 -0.834 5.79854 22.3706 59.0334
107 1 1 -0.834 20.0305 18.2724 73.9794
108 1 1 -0.834 10.3293 7.12779 45.465
109 1 1 -0.834 1.95634 2.40322 77.3138
110 1 1 -0.834 15.1682 21.4843 52.5451
111 1 1 -0.834 9.36385 9.22607 61.7335
112 1 1 -0.834 11.8497 17.3952 12.8288
113 1 1 -0.834 13.7643 0.564601 84.5122
114 1 1 -0.834 21.9761 17.2341 28.3565
115 1 1 -0.834 4.67554 1.66135 63.3762
116 1 1 -0.834 0.791394 10.0635 77.8912
117 1 1 -0.834 17.2741 4.07152 78.7904
118 1 1 -0.834 14.8562 24.1235 20.6151
119 1 1 -0.834 6.82345 14.0376 54.3012
120 1 1 -0.834 6.80425 11.1565 63.4919
121 1 1 -0.834 8.03252 20.1866 39.8652
122 1 1 -0.834 5.38626 12.4913 68.8991
123 1 1 -0.834 21.0494 20.3601 69.0292
124 1 1 -0.834 22.5944 19.4059 45.2304
125 1 1 -0.834 17.9559 11.9468 71.4195
126 1 1 -0.834 0.0935239 21.4689 64.5242
127 1 1 -0.834 15.605 10.53 58.148
128 1 1 -0.834 9.21045 5.1464 73.6557
129 1 1 -0.834 12.8969 14.3227 11.5822
130 1 1 -0.834 23.385 23.0258 1.37947
131 1 1 -0.834 21.2377 8.09834 16.8013
132 1 1 -0.834 8.7488 17.294 67.632
133 1 1 -0.834 21.3426 23.8305 26.071
134 1 1 -0.834 5.59583 3.41065 53.1158
135 1 1 -0.834 15.44 14.0389 5.55815
136 1 1 -0.834 17.6045 21.1359 54.5701
137 1 1 -0.834 20.2322 0.752397 23.8805
138 1 1 -0.834 22.8003 20.1828 24.9057
139 1 1 -0.834 14.2255 9.56753 70.6356
140 1 1 -0.834 20.7767 14.1826 64.9681
141 1 1 -0.834 23.1459 16.889 66.6054
142 1 1 -0.834 7.42157 22.3909 61.1145
143 1 1 -0.834 11.6311 8.45784 42.5811
144 1 1 -0.834 10.6983 6.66716 61.5595
145 1 1 -0.834 23.4649 19.0516 72.4527
146 1 1 -0.834 2.39534 19.2715 84.6517
147 1 1 -0.834 6.06641 15.7233 74.6922
148 1 1 -0.834 7.73551 8.48849 48.5432
149 1 1 -0.834 6.79952 7.91254 62.9169
150 1 1 -0.834 8.84327 16.2128 39.3634
151 1 1 -0.834 16.2576 22.3321 63.5623
152 1 1 -0.834 4.30422 19.4675 72.2487
153 1 1 -0.834 1.31443 21.0125 52.3387
154 1 1 -0.834 10.58 3.18228 63.8024
155 1 1 -0.834 16.1402 18.9951 6.36298
156 1 1 -0.834 10.2852 5.96047 58.174
157 1 1 -0.834 14.9314 4.69277 57.4851
158 1 1 -0.834 22.2643 21.5471 52.4615
159 1 1 -0.834 2.35238 23.3714 68.4825
160 1 1 -0.834 14.2967 3.81252 67.8714
161 1 1 -0.834 11.4349 11.6519 77.4024
162 1 1 -0.834 5.14509 23.2925 49.7193
163 1 1 -0.834 3.6272 5.78915 76.8813
164 1 1 -0.834 20.876 14.9332 41.9334
165 1 1 -0.834 17.5702 9.13829 44.2437
166 1 1 -0.834 22.199 16.9328 46.8953
167 1 1 -0.834 23.2937 16.0024 52.3359
168 1 1 -0.834 15.5138 17.4138 74.9265
169 1 1 -0.834 22.2837 17.5283 54.6045
170 1 1 -0.834 16.4213 19.6075 65.0751
171 1 1 -0.834 20.6322 13.3053 38.2948
172 1 1 -0.834 19.916 12.9924 11.5972
173 1 1 -0.834 9.42547 11.0961 52.3085
174 1 1 -0.834 7.67751 12.5306 71.9019
175 1 1 -0.834 17.057 0.460236 74.1584
176 1 1 -0.834 22.301 2.75664 33.784
177 1 1 -0.834 12.5539 17.5121 65.196
178 1 1 -0.834 0.259752 0.791101 75.8498
179 1 1 -0.834 10.5497 11.9672 66.6274
180 1 1 -0.834 14.5214 20.6636 58.2527
181 1 1 -0.834 14.8205 2.35127 59.2925
182 1 1 -0.834 3.79446 18.0734 48.3704
183 1 1 -0.834 12.2375 8.52819 67.6072
184 1 1 -0.834 18.5565 5.40912 21.5133
185 1 1 -0.834 18.9338 6.25366 45.8943
186 1 1 -0.834 5.47931 22.0562 16.7654
187 1 1 -0.834 19.3683 23.2282 68.5476
188 1 1 -0.834 19.9445 7.62393 61.5232
189 1 1 -0.834 20.5478 20.8443 76.7353
190 1 1 -0.834 6.64052 8.34672 77.6701
191 1 1 -0.834 5.02868 15.3869 62.936
192 1 1 -0.834 11.9003 11.4179 56.731
193 1 1 -0.834 12.74 23.7088 48.7761
194 1 1 -0.834 5.18506 19.719 19.6281
195 1 1 -0.834 10.7873 14.626 32.3909
196 1 1 -0.834 17.7189 6.39481 62.7765
197 1 1 -0.834 7.98121 16.3912 64.7112
198 1 1 -0.834 10.6837 0.0107874 66.7199
199 1 1 -0.834 3.22966 8.89713 65.9672
200 1 1 -0.834 14.0718 22.3814 70.8747
201 1 1 -0.834 10.8695 22.9247 37.1221
202 1 1 -0.834 1.26692 19.0197 68.8607
203 1 1 -0.834 17.625 3.76146 87.4584
204 1 1 -0.834 4.6203 18.297 85.9311
205 1 1 -0.834 17.297 22.3581 69.819
206 1 1 -0.834 14.2394 12.9838 57.4518
207 1 1 -0.834 5.67868 9.32406 58.6566
208 1 1 -0.834 0.417413 1.03974 45.641
209 1 1 -0.834 13.2306 15.6564 78.7275
210 1 1 -0.834 13.0045 11.3805 29.3132
211 1 1 -0.834 24.2522 22.3197 54.4999
212 1 1 -0.834 6.20163 6.66951 52.1553
213 1 1 -0.834 3.30702 3.83288 68.0895
214 1 1 -0.834 23.567 10.3921 64.9725
215 1 1 -0.834 14.9688 18.9504 69.29
216 1 1 -0.834 5.30394 22.9441 11.0569
217 1 1 -0.834 4.63029 3.22756 46.503
218 1 1 -0.834 17.1075 16.4475 5.05014
219 1 1 -0.834 3.25654 4.07011 9.70092
220 1 1 -0.834 4.18892 17.7616 42.6447
221 1 1 -0.834 0.482625 0.787184 63.7263
222 1 1 -0.834 0.825513 6.80434 39.6259
223 1 1 -0.834 15.5003 16.2257 66.594
224 1 1 -0.834 8.90751 14.444 46.0491
225 1 1 -0.834 8.54332 19.5275 15.0474
226 1 1 -0.834 22.1209 1.49608 63.758
227 1 1 -0.834 21.831 11.8574 61.5875
228 1 1 -0.834 19.8937 0.115196 43.1495
229 1 1 -0.834 22.9342 6.22194 44.6787
230 1 1 -0.834 24.2093 2.55986 65.8407
231 1 1 -0.834 4.90109 11.1645 22.4297
232 1 1 -0.834 15.9556 12.221 47.9533
233 1 1 -0.834 13.6754 13.3107 80.3081
234 1 1 -0.834 12.727 20.5957 50.5694
235 1 1 -0.834 20.9632 9.08027 34.689
236 1 1 -0.834 0.19627 2.97558 54.9381
237 1 1 -0.834 23.9236 9.46965 62.2094
238 1 1 -0.834 13.5715 7.77716 24.6718
239 1 1 -0.834 5.57832 1.58659 32.7282
240 1 1 -0.834 11.0214 17.7866 39.9878
241 1 1 -0.834 10.521 21.3478 49.6577
242 1 1 -0.834 23.7009 4.56212 9.69668
243 1 1 -0.834 8.31031 19.6889 49.9091
244 1 1 -0.834 17.3873 16.3829 47.1154
245 1 1 -0.834 5.47636 10.7897 66.0851
246 1 1 -0.834 7.23885 15.3368 84.9591
247 1 1 -0.834 5.97673 0.535935 38.2487
248 1 1 -0.834 12.5737 1.74679 82.0488
249 1 1 -0.834 8.68733 1.84764 70.6632
250 1 1 -0.834 13.9365 7.20962 21.7213
251 1 1 -0.834 7.5803 12.5655 23.8705
252 1 1 -0.834 19.5169 13.7117 75.9205
253 1 1 -0.834 10.1647 9.40344 57.5293
254 1 1 -0.834 5.12007 15.5624 80.3765
255 1 1 -0.834 3.60751 20.0952 75.5202
256 1 1 -0.834 7.21875 21.317 51.8058
257 1 1 -0.834 21.2389 3.09007 70.2262
258 1 1 -0.834 0.902344 11.9742 46.2768
259 1 1 -0.834 13.0066 22.1129 62.7942
260 1 1 -0.834 4.29089 23.9258 55.7279
261 1 1 -0.834 14.0205 20.1036 55.6184
262 1 1 -0.834 20.3411 10.6872 40.3285
263 1 1 -0.834 14.2297 0.230853 56.2222
264 1 1 -0.834 8.2473 18.0569 81.9491
265 1 1 -0.834 9.44628 21.7336 10.8489
266 1 1 -0.834 10.327 17.1762 15.2941
267 1 1 -0.834 7.2625 16.5244 43.9062
268 1 1 -0.834 4.8783 13.6001 23.8104
269 1 1 -0.834 17.1349 7.82322 59.7452
270 1 1 -0.834 16.7618 22.9692 43.6746
271 1 1 -0.834 8.83622 12.2384 4.29097
272 1 1 -0.834 5.01939 4.25469 71.592
273 1 1 -0.834 11.5336 12.5208 48.1889
274 1 1 -0.834 17.1625 3.13841 72.9071
275 1 1 -0.834 18.8926 16.2418 53.4793
276 1 1 -0.834 2.54913 11.1841 82.155
277 1 1 -0.834 17.1732 13.2469 69.158
278 1 1 -0.834 7.42978 23.977 17.5526
279 1 1 -0.834 15.7649 1.57756 78.0823
280 1 1 -0.834 21.0254 8.92695 46.4709
281 1 1 -0.834 18.7456 0.883195 50.6304
282 1 1 -0.834 10.54 17.7384 48.2177
283 1 1 -0.834 20.3908 17.9369 61.2709
284 1 1 -0.834 22.8937 1.03763 69.2095
285 1 1 -0.834 1.75707 8.69729 59.2944
286 1 1 -0.834 13.4492 1.48895 69.6587
287 1 1 -0.834 20.5249 16.8002 66.7569
288 1 1 -0.834 16.3777 0.477668 52.2924
289 1 1 -0.834 23.7975 19.2086 79.6921
290 1 1 -0.834 12.6261 12.0126 32.96
291 1 1 -0.834 1.48229 0.895248 35.3356
292 1 1 -0.834 0.482489 14.6182 75.7573
293 1 1 -0.834 14.0264 7.98796 43.808
294 1 1 -0.834 13.8369 2.50971 52.598
295 1 1 -0.834 2.34404 5.44118 53.8993
296 1 1 -0.834 5.60646 9.63626 5.28673
297 1 1 -0.834 5.79041 2.69961 66.6828
298 1 1 -0.834 2.04333 9.35694 45.7537
299 1 1 -0.834 2.99936 11.958 48.9216
300 1 1 -0.834 19.3084 10.2756 81.4157
301 1 1 -0.834 2.64647 6.78788 35.752
302 1 1 -0.834 17.4919 13.0299 44.6789
303 1 1 -0.834 6.56227 2.41524 61.6882
304 1 1 -0.834 2.28886 8.50925 70.7546
305 1 1 -0.834 10.2565 3.41399 46.9776
306 1 1 -0.834 13.7867 17.9841 7.48542
307 1 1 -0.834 21.6134 20.4632 27.8408
308 1 1 -0.834 11.9589 6.53362 80.2545
309 1 1 -0.834 5.69994 20.9476 78.8431
310 1 1 -0.834 8.17262 13.4327 26.5571
311 1 1 -0.834 6.64288 7.37161 43.6715
312 1 1 -0.834 14.4151 16.0852 13.1404
313 1 1 -0.834 9.42327 23.3522 59.6225
314 1 1 -0.834 18.8692 11.1027 75.3718
315 1 1 -0.834 16.0628 1.21906 25.0697
316 1 1 -0.834 7.00648 17.7941 41.0232
317 1 1 -0.834 4.28083 4.87604 79.3754
318 1 1 -0.834 4.03544 8.91414 52.4169
319 1 1 -0.834 7.57625 24.0423 53.7077
320 1 1 -0.834 3.4058 19.7391 58.5807
321 1 1 -0.834 21.0952 21.5155 0.0581911
322 1 1 -0.834 2.67294 2.93519 65.276
323 1 1 -0.834 12.17 14.4474 56.1445
324 1 1 -0.834 5.17991 7.48453 49.5139
325 1 1 -0.834 16.1312 5.92524 45.7645
326 1 1 -0.834 17.7323 3.91798 61.8262
327 1 1 -0.834 18.8636 5.74299 71.879
328 1 1 -0.834 0.929079 0.670449 80.6419
329 1 1 -0.834 19.7791 10.9633 69.1424
330 1 1 -0.834 12.1677 19.0522 58.0513
331 1 1 -0.834 5.45089 10.4759 79.2504
332 1 1 -0.834 6.26713 11.4294 3.49419
333 1 1 -0.834 19.734 4.58397 47.8852
334 1 1 -0.834 0.558779 14.9515 83.4372
335 1 1 -0.834 17.0736 20.0871 43.7142
336 1 1 -0.834 6.6546 2.01935 12.3127
337 1 1 -0.834 11.8157 21.2416 74.8854
338 1 1 -0.834 3.2909 10.9964 20.2265
339 1 1 -0.834 18.0303 19.7576 70.5653
340 1 1 -0.834 8.03701 5.30591 65.0296
341 1 1 -0.834 8.95456 2.46354 56.7538
342 1 1 -0.834 2.14995 19.486 20.6081
343 1 1 -0.834 1.10878 7.21822 74.0636
344 1 1 -0.834 19.1948 13.1737 62.9495
345 1 1 -0.834 7.59374 14.6507 51.8797
346 1 1 -0.834 2.03156 4.68674 74.8076
347 1 1 -0.834 1.2873 19.572 0.473463
348 1 1 -0.834 24.2735 19.079 27.3741
349 1 1 -0.834 20.4433 23.4548 30.5472
350 1 1 -0.834 14.8505 7.94361 57.0515
351 1 1 -0.834 9.18453 2.07531 67.6595
352 1 1 -0.834 18.9186 20.6574 63.6015
353 1 1 -0.834 11.18 1.25667 43.6456
354 1 1 -0.834 8.10913 9.73729 67.2092
355 1 1 -0.834 7.68282 21.9614 37.6537
356 1 1 -0.834 12.1552 17.5543 53.052
357 1 1 -0.834 16.4964 22.2022 79.1109
358 1 1 -0.834 5.41415 23.9704 47.2028
359 1 1 -0.834 14.8243 2.61699 45.3015
360 1 1 -0.834 18.1437 21.9328 65.9989
361 1 1 -0.834 8.71886 0.226003 44.851
362 1 1 -0.834 13.3086 9.69326 48.0009
363 1 1 -0.834 9.93557 19.3759 38.0778
364 1 1 -0.834 19.3025 16.453 34.8737
365 1 1 -0.834 23.2827 1.4973 79.2906
366 1 1 -0.834 21.2131 8.1675 63.9924
367 1 1 -0.834 7.666 10.5215 76.2836
368 1 1 -0.834 14.9022 20.9995 42.3144
369 1 1 -0.834 20.5201 15.3983 51.1379
370 1 1 -0.834 22.6714 0.330155 43.6576
371 1 1 -0.834 12.0297 18.672 70.9276
372 1 1 -0.834 19.1465 3.10827 56.8909
373 1 1 -0.834 10.293 4.06586 43.6152
374 1 1 -0.834 16.6324 6.43602 76.4966
375 1 1 -0.834 9.28208 21.1955 43.1401
376 1 1 -0.834 21.815 20.3314 65.8427
377 1 1 -0.834 21.9795 3.95123 49.4084
378 1 1 -0.834 23.2312 6.58721 57.5808
379 1 1 -0.834 5.35549 12.7462 60.2713
380 1 1 -0.834 19.4022 20.3799 26.3833
381 1 1 -0.834 10.3174 4.59451 68.0865
382 1 1 -0.834 5.83317 5.24916 32.3737
383 1 1 -0.834 16.0144 12.3506 73.4502
384 1 1 -0.834 4.42286 14.5262 49.5403
385 1 1 -0.834 23.836 5.23496 51.4736
386 1 1 -0.834 5.76611 17.8667 45.8595
387 1 1 -0.834 1.06915 6.8172 9.78216
388 1 1 -0.834 17.8082 2.29182 54.2357
389 1 1 -0.834 19.2461 11.3526 36.094
390 1 1 -0.834 21.1889 5.03196 39.2744
391 1 1 -0.834 12.2291 17.4718 60.5578
392 1 1 -0.834 21.9183 0.364302 52.6779
393 1 1 -0.834 19.6082 20.2125 7.20765
394 1 1 -0.834 20.8697 13.4876 67.4847
395 1 1 -0.834 5.33466 6.3159 10.1742
396 1 1 -0.834 13.6129 3.48074 77.5649
397 1 1 -0.834 4.93894 22.1493 38.5443
398 1 1 -0.834 3.83491 13.3132 84.4942
399 1 1 -0.834 1.19866 0.208799 54.2636
400 1 1 -0.834 16.0511 14.5153 64.1945
401 1 1 -0.834 8.39014 10.1752 1.41705
402 1 1 -0.834 5.69121 0.233628 75.0462
403 1 1 -0.834 20.889 5.73881 51.4376
404 1 1 -0.834 11.6577 14.9331 51.1701
405 1 1 -0.834 5.15376 4.95713 28.9807
406 1 1 -0.834 24.0484 11.7372 13.9966
407 1 1 -0.834 18.2764 3.00857 68.9483
408 1 1 -0.834 8.4666 4.68217 79.0454
409 1 1 -0.834 8.73465 18.9729 53.1516
410 1 1 -0.834 14.5776 19.6246 62.9782
411 1 1 -0.834 22.9231 12.3666 83.2271
412 1 1 -0.834 16.7372 20.7575 27.2501
413 1 1 -0.834 13.1966 6.06949 66.9805
414 1 1 -0.834 0.109142 13.6427 53.4541
415 1 1 -0.834 6.19022 3.71362 10.2534
416 1 1 -0.834 12.722 4.34722 45.7001
417 1 1 -0.834 0.435783 3.21529 81.2666
418 1 1 -0.834 5.18497 4.32915 57.6002
419 1 1 -0.834 1.47019 4.75203 37.7819
420 1 1 -0.834 7.06192 14.4718 82.2439
421 1 1 -0.834 16.3923 16.8293 79.6691
422 1 1 -0.834 1.66417 21.8495 26.749
423 1 1 -0.834 1.16952 15.4026 86.1884
424 1 1 -0.834 6.977 10.1873 60.9582
425 1 1 -0.834 0.326459 15.8091 78.2416
426 1 1 -0.834 21.612 10.7451 51.85
427 1 1 -0.834 10.6635 11.569 63.6888
428 1 1 -0.834 10.8035 13.5877 43.4248
429 1 1 -0.834 2.51898 1.07278 29.9064
430 1 1 -0.834 8.89962 4.60019 71.0404
431 1 1 -0.834 6.15604 1.37663 45.4027
432 1 1 -0.834 12.2588 22.9986 78.6978
433 1 1 -0.834 22.6576 15.6223 20.9288
434 1 1 -0.834 17.06 13.6452 12.9909
435 1 1 -0.834 0.0835704 11.107 81.3018
436 1 1 -0.834 23.0023 10.5365 54.3908
437 1 1 -0.834 11.8558 24.1064 15.2371
438 1 1 -0.834 15.7858 2.66419 70.3966
439 1 1 -0.834 2.5328 16.1978 17.2768
440 1 1 -0.834 21.9763 18.5637 59.1096
441 1 1 -0.834 20.7956 14.8816 55.2325
442 1 1 -0.834 6.65134 16.7719 49.7685
443 1 1 -0.834 0.909148 12.1749 21.6658
444 1 1 -0.834 19.7085 0.920442 64.8277
445 1 1 -0.834 18.5712 21.3535 49.1443
446 1 1 -0.834 14.2927 18.4415 10.9832
447 1 1 -0.834 19.9255 19.6277 45.0617
448 1 1 -0.834 0.326385 19.3196 22.6509
449 1 1 -0.834 17.7635 20.0042 67.8038
450 1 1 -0.834 22.8428 8.30834 77.35
451 1 1 -0.834 14.2501 24.1544 46.0053
452 1 1 -0.834 4.80832 16.4208 0.418749
453 1 1 -0.834 3.29184 0.845632 11.5212
454 1 1 -0.834 21.5567 4.49838 56.6643
455 1 1 -0.834 3.36091 21.9137 60.6117
456 1 1 -0.834 11.0905 18.7965 81.0512
457 1 1 -0.834 11.7167 16.1052 69.8408
458 1 1 -0.834 14.7256 13.4546 75.6748
459 1 1 -0.834 15.5943 19.6476 33.8113
460 1 1 -0.834 22.2663 0.720716 46.5368
461 1 1 -0.834 20.1951 8.31232 52.4906
462 1 1 -0.834 23.3463 24.2379 66.0642
463 1 1 -0.834 1.13523 21.5429 2.62413
464 1 1 -0.834 14.6238 8.83837 79.0663
465 1 1 -0.834 13.4676 9.95539 26.9067
466 1 1 -0.834 24.2536 18.7478 64.6252
467 1 1 -0.834 2.9819 15.7396 26.1097
468 1 1 -0.834 12.5592 16.0275 81.4105
469 1 1 -0.834 22.1103 4.42464 65.8035
470 1 1 -0.834 6.34562 19.9591 74.103
471 1 1 -0.834 10.7737 8.58152 6.00998
472 1 1 -0.834 1.92946 13.9503 23.8964
473 1 1 -0.834 10.0327 6.06227 76.2984
474 1 1 -0.834 4.54744 0.60543 7.63452
475 1 1 -0.834 5.09943 4.38429 74.6004
476 1 1 -0.834 21.237 4.33433 78.0325
477 1 1 -0.834 0.12599 3.98472 45.4493
478 1 1 -0.834 6.93767 19.4905 43.9585
479 1 1 -0.834 8.6542 20.4581 45.9324
480 1 1 -0.834 4.56947 8.40212 61.1962
481 1 1 -0.834 13.135 24.3372 61.173
482 1 1 -0.834 17.6893 1.9771 85.345
483 1 1 -0.834 19.6532 15.8159 9.49183
484 1 1 -0.834 11.2813 15.2015 35.0737
485 1 1 -0.834 23.8112 2.455 6.04084
486 1 1 -0.834 2.02335 11.1739 64.3435
487 1 1 -0.834 8.5503 23.6843 71.0378
488 1 1 -0.834 7.02185 6.93802 75.3845
489 1 1 -0.834 11.7986 15.2989 46.5252
490 1 1 -0.834 4.63956 20.9829 62.9802
491 1 1 -0.834 20.0145 4.25374 74.048
492 1 1 -0.834 17.065 8.36368 53.4746
493 1 1 -0.834 1.17786 11.2541 18.4019
494 1 1 -0.834 5.48964 21.4083 65.7256
495 1 1 -0.834 17.194 19.0385 73.233
496 1 1 -0.834 16.3775 16.5491 32.6609
497 1 1 -0.834 4.23806 21.6186 46.0197
498 1 1 -0.834 11.1454 20.2725 61.3033
499 1 1 -0.834 9.62278 7.26073 67.2762
500 1 1 -0.834 6.99613 19.3281 62.8734
501 1 1 -0.834 20.5694 7.04404 36.9743
502 1 1 -0.834 17.1517 11.3947 33.7871
503 1 1 -0.834 11.9185 13.5023 74.6975
504 1 1 -0.834 7.728 15.6795 69.4496
505 1 1 -0.834 19.8122 20.4279 60.0072
506 1 1 -0.834 9.53135 10.8611 6.71394
507 1 1 -0.834 5.35765 12.7024 43.4857
508 1 1 -0.834 10.8061 6.68398 3.94768
509 1 1 -0.834 23.6112 7.95435 80.4254
510 1 1 -0.834 14.3796 12.8566 69.8855
511 1 1 -0.834 3.00061 8.94531 78.9186
512 1 1 -0.834 22.0382 23.6802 58.7229
513 1 1 -0.834 12.9907 12.432 9.30253
514 1 1 -0.834 20.8571 23.0559 66.0115
515 1 1 -0.834 0.01351 4.88655 13.7234
516 1 1 -0.834 22.9766 9.25807 57.9471
517 1 1 -0.834 3.37152 7.63486 8.69981
518 1 1 -0.834 16.7769 21.9159 57.0389
519 1 1 -0.834 1.19489 24.1928 10.0103
520 1 1 -0.834 13.0743 15.6428 73.2782
521 1 1 -0.834 19.31 10.9766 47.9776
522 1 1 -0.834 13.9961 3.21608 84.8783
523 1 1 -0.834 23.6748 20.8184 86.8477
524 1 1 -0.834 13.1232 22.7976 54.5222
525 1 1 -0.834 21.2273 1.85293 27.7483
526 1 1 -0.834 18.0236 11.9739 38.925
527 1 1 -0.834 12.9222 4.87992 63.9058
528 1 1 -0.834 14.5244 9.48967 54.1347
529 1 1 -0.834 6.08521 9.92552 55.0635
530 1 1 -0.834 10.5147 13.1675 53.933
531 1 1 -0.834 24.2418 5.96789 68.0273
532 1 1 -0.834 7.56025 7.20367 24.6429
533 1 1 -0.834 21.0823 7.87156 67.1151
534 1 1 -0.834 3.22983 3.65933 59.6824
535 1 1 -0.834 19.8004 22.8109 51.2133
536 1 1 -0.834 20.606 12.6692 49.9406
537 1 1 -0.834 9.49419 15.7502 42.231
538 1 1 -0.834 10.655 14.986 9.5735
539 1 1 -0.834 15.6385 13.4811 30.3086
540 1 1 -0.834 22.7305 5.49671 80.2946
541 1 1 -0.834 10.6286 17.4237 72.9276
542 1 1 -0.834 4.16417 4.12455 36.9291
543 1 1 -0.834 16.8384 1.12868 1.3572
544 1 1 -0.834 16.8982 7.34821 73.7491
545 1 1 -0.834 2.63579 15.8647 41.5186
546 1 1 -0.834 12.7254 17.7372 31.1614
547 1 1 -0.834 11.6851 1.00342 71.5579
548 1 1 -0.834 1.93181 16.8285 0.941713
549 1 1 -0.834 5.34901 15.2123 42.1806
550 1 1 -0.834 11.098 2.73275 20.258
551 1 1 -0.834 20.9436 22.7037 47.9168
552 1 1 -0.834 7.03577 9.64172 52.3936
553 1 1 -0.834 9.50564 14.9018 56.5437
554 1 1 -0.834 12.8622 13.1812 5.01628
555 1 1 -0.834 12.4527 12.206 45.5507
556 1 1 -0.834 2.52431 0.693692 59.5458
557 1 1 -0.834 18.754 1.56383 26.0045
558 1 1 -0.834 4.20962 11.0631 76.7227
559 1 1 -0.834 14.0871 8.77326 3.61089
560 1 1 -0.834 22.3683 17.9851 69.7168
561 1 1 -0.834 9.34877 9.62499 44.7206
562 1 1 -0.834 22.0047 4.6001 15.4704
563 1 1 -0.834 11.6804 20.0004 47.5286
564 1 1 -0.834 9.06837 20.0814 64.5429
565 1 1 -0.834 23.5604 23.3498 31.9701
566 1 1 -0.834 22.6655 13.7469 80.7824
567 1 1 -0.834 8.92336 11.9197 49.3444
568 1 1 -0.834 17.3381 22.8356 25.4711
569 1 1 -0.834 22.5413 4.11633 75.5724
570 1 1 -0.834 15.2402 15.0013 9.839
571 1 1 -0.834 10.7182 7.36701 23.4574
572 1 1 -0.834 10.6033 12.805 2.62539
573 1 1 -0.834 20.552 2.68332 52.2386
574 1 1 -0.834 21.7128 21.6746 74.4946
575 1 1 -0.834 23.9585 22.4705 79.5217
576 1 1 -0.834 6.57465 23.1247 77.1883
577 1 1 -0.834 18.5211 17.9318 58.7229
578 1 1 -0.834 18.7569 10.3958 56.965
579 1 1 -0.834 10.0307 11.902 58.6848
580 1 1 -0.834 17.6903 4.60168 24.0951
581 1 1 -0.834 15.7194 6.5403 52.0186
582 1 1 -0.834 18.9844 1.21405 61.2336
583 1 1 -0.834 18.4502 18.7384 76.251
584 1 1 -0.834 8.28499 16.7705 47.3485
585 1 1 -0.834 7.346 16.3571 55.662
586 1 1 -0.834 12.1143 9.08964 45.6392
587 1 1 -0.834 7.68941 10.0115 70.3719
588 1 1 -0.834 2.70134 6.88667 63.9999
589 1 1 -0.834 12.4215 5.49017 84.8352
590 1 1 -0.834 0.236593 12.7555 16.4827
591 1 1 -0.834 10.0608 6.26511 28.6565
592 1 1 -0.834 15.483 8.29296 49.2546
593 1 1 -0.834 16.7478 10.9228 79.0757
594 1 1 -0.834 10.5709 4.99274 1.20193
595 1 1 -0.834 15.602 22.7243 84.738
596 1 1 -0.834 13.0183 18.7317 33.7669
597 1 1 -0.834 3.04755 9.8815 57.1939
598 1 1 -0.834 4.91635 0.124955 65.8469
599 1 1 -0.834 1.64131 5.72584 49.2561
600 1 1 -0.834 20.9417 9.66539 83.3524
601 1 1 -0.834 6.84078 13.9063 65.2902
602 1 1 -0.834 2.28865 8.62456 40.7111
603 1 1 -0.834 7.33105 0.23152 14.8706
604 1 1 -0.834 19.4656 1.7615 75.3487
605 1 1 -0.834 9.57004 20.0069 78.293
606 1 1 -0.834 2.0235 22.0611 56.3137
607 1 1 -0.834 20.301 22.5255 45.2415
608 1 1 -0.834 8.60946 1.82686 52.6481
609 1 1 -0.834 11.5383 3.94311 75.1884
610 1 1 -0.834 9.72552 19.6871 18.2484
611 1 1 -0.834 1.87174 1.00703 71.3083
612 1 1 -0.834 2.57706 23.8251 50.3504
613 1 1 -0.834 19.7509 18.1263 80.0334
614 1 1 -0.834 3.90289 1.43279 36.3513
615 1 1 -0.834 6.70917 19.7926 47.7249
616 1 1 -0.834 17.7218 13.6632 9.48979
617 1 1 -0.834 14.662 22.0707 65.8104
618 1 1 -0.834 1.28183 3.14686 52.3132
619 1 1 -0.834 16.3833 15.2513 77.0716
620 1 1 -0.834 14.365 8.13996 76.1708
621 1 1 -0.834 14.5986 14.4636 51.4446
622 1 1 -0.834 11.8245 1.60128 78.644
623 1 1 -0.834 17.8498 20.2653 4.67551
624 1 1 -0.834 20.9003 11.9387 72.3865
625 1 1 -0.834 5.52683 20.793 70.1656
626 1 1 -0.834 2.73275 21.3104 65.5161
627 1 1 -0.834 16.3927 2.74713 16.8003
628 1 1 -0.834 19.6493 8.65651 72.9181
629 1 1 -0.834 5.11643 0.515499 60.4711
630 1 1 -0.834 1.39424 3.6747 71.1006
631 1 1 -0.834 10.555 13.6964 60.8324
632 1 1 -0.834 16.9797 10.9105 12.4251
633 1 1 -0.834 19.2243 24.061 79.5895
634 1 1 -0.834 20.3257 4.40946 60.3661
635 1 1 -0.834 10.3573 21.2051 71.8801
636 1 1 -0.834 3.40502 2.23769 79.5638
637 1 1 -0.834 16.456 3.2026 47.2758
638 1 1 -0.834 20.6244 10.7568 13.1107
639 1 1 -0.834 13.2527 21.0259 77.1192
640 1 1 -0.834 14.1803 12.3569 62.2375
641 1 1 -0.834 0.627883 13.2505 72.8025
642 1 1 -0.834 2.46499 22.9235 34.4451
643 1 1 -0.834 2.55651 18.3024 64.0675
644 1 1 -0.834 23.2936 12.7132 19.6222
645 1 1 -0.834 15.1492 2.90501 20.6969
646 1 1 -0.834 13.7784 19.1617 13.4957
647 1 1 -0.834 5.56847 15.3704 77.5976
648 1 1 -0.834 18.1841 7.62557 50.2924
649 1 1 -0.834 3.43947 8.4794 43.4863
650 1 1 -0.834 22.4583 1.96568 56.1177
651 1 1 -0.834 13.1172 10.3549 5.81156
652 1 1 -0.834 22.8587 13.3529 71.122
653 1 1 -0.834 11.4352 5.03344 22.2002
654 1 1 -0.834 2.66456 16.5056 21.5826
655 1 1 -0.834 7.13647 7.68521 1.92791
656 1 1 -0.834 13.3274 9.32355 51.577
657 1 1 -0.834 13.2555 20.018 44.4117
658 1 1 -0.834 23.1821 18.5335 61.6724
659 1 1 -0.834 15.9824 6.34708 66.4297
660 1 1 -0.834 22.8308 13.9552 45.9589
661 1 1 -0.834 0.669599 10.9987 56.5575
662 1 1 -0.834 18.4131 1.75322 82.0193
663 1 1 -0.834 0.242086 23.5754 59.5227
664 1 1 -0.834 14.8459 15.9954 30.3915
665 1 1 -0.834 6.11969 1.77301 72.2511
666 1 1 -0.834 2.76204 20.4648 79.1303
667 1 1 -0.834 5.56282 11.8708 52.7291
668 1 1 -0.834 21.382 0.140337 5.1907
669 1 1 -0.834 0.775483 12.9162 41.4684
670 1 1 -0.834 18.2504 14.9122 81.0176
671 1 1 -0.834 8.51317 8.59665 55.1831
672 1 1 -0.834 6.09868 10.727 28.8212
673 1 1 -0.834 13.87 14.1811 67.4095
674 1 1 -0.834 9.06134 3.8874 54.354
675 1 1 -0.834 1.63008 23.0991 30.8646
676 1 1 -0.834 22.8724 22.6014 69.4552
677 1 1 -0.834 19.1673 6.35128 14.0385
678 1 1 -0.834 19.8576 10.8176 65.2413
679 1 1 -0.834 21.8775 10.0609 80.5472
680 1 1 -0.834 19.6164 7.48573 40.7785
681 1 1 -0.834 4.93856 2.38619 30.0451
682 1 1 -0.834 3.48465 2.48378 54.7751
683 1 1 -0.834 8.45651 17.0638 62.1931
684 1 1 -0.834 23.8223 16.3901 73.7007
685 1 1 -0.834 18.8101 11.1523 42.6936
686 1 1 -0.834 17.5435 18.3743 28.5843
687 1 1 -0.834 23.1011 5.63202 37.6013
688 1 1 -0.834 16.756 14.206 58.6955
689 1 1 -0.834 14.8031 18.0121 60.1599
690 1 1 -0.834 4.65487 17.7871 17.4397
691 1 1 -0.834 5.10601 23.3399 69.727
692 1 1 -0.834 1.31674 9.99995 73.6114
693 1 1 -0.834 11.8382 19.6042 15.5838
694 1 1 -0.834 24.1501 12.5251 49.1328
695 1 1 -0.834 16.6035 4.09633 52.3793
696 1 1 -0.834 15.215 21.6065 68.4964
697 1 1 -0.834 8.92399 17.058 51.1484
698 1 1 -0.834 18.5209 7.50037 78.8764
699 1 1 -0.834 3.71307 5.43733 12.2428
700 1 1 -0.834 6.06461 19.1176 76.7203
701 1 1 -0.834 0.111993 16.6101 25.8807
702 1 1 -0.834 19.8909 23.7689 73.6835
703 1 1 -0.834 13.266 1.03415 24.387
704 1 1 -0.834 3.37563 5.38585 51.1875
705 1 1 -0.834 8.76554 13.7078 63.3615
706 1 1 -0.834 9.36305 14.6343 71.5185
707 1 1 -0.834 3.87049 12.7483 45.8258
708 1 1 -0.834 17.0112 7.28275 69.1027
709 1 1 -0.834 9.98967 7.39827 78.5212
710 1 1 -0.834 16.8406 21.4981 2.13627
711 1 1 -0.834 0.183964 7.45487 54.0865
712 1 1 -0.834 7.63861 19.4256 69.3043
713 1 1 -0.834 23.8961 23.6565 26.149
714 1 1 -0.834 3.09785 2.34268 48.7453
715 1 1 -0.834 7.37819 20.8446 57.0507
716 1 1 -0.834 14.375 6.4837 70.4443
717 1 1 -0.834 8.70668 9.76372 78.6727
718 1 1 -0.834 2.69603 4.03676 29.1698
719 1 1 -0.834 0.0842125 23.2857 51.2693
720 1 1 -0.834 14.5757 14.0235 33.6237
721 1 1 -0.834 12.2803 5.97957 43.2224
722 1 1 -0.834 19.3308 5.94746 76.1958
723 1 1 -0.834 9.92625 24.2714 49.1663
724 1 1 -0.834 20.3374 17.5677 26.1181
725 1 1 -0.834 10.8061 24.2229 83.1915
726 1 1 -0.834 12.5989 1.25282 87.4449
727 1 1 -0.834 9.92066 23.4566 74.9751
728 1 1 -0.834 6.36498 5.34578 55.205
729 1 1 -0.834 9.46348 6.74948 42.9136
730 1 1 -0.834 19.2502 17.2979 69.079
731 1 1 -0.834 10.8634 1.75602 61.3849
732 1 1 -0.834 11.1133 16.0142 67.2618
733 1 1 -0.834 8.77376 6.47758 53.3799
734 1 1 -0.834 10.4264 6.38376 86.4703
735 1 1 -0.834 10.5742 3.70978 83.7089
736 1 1 -0.834 6.2803 12.3915 56.5325
737 1 1 -0.834 9.65468 9.41524 38.7526
738 1 1 -0.834 7.56815 22.8005 73.417
739 1 1 -0.834 21.1428 9.77818 60.1582
740 1 1 -0.834 4.11164 11.2316 73.7464
741 1 1 -0.834 16.4161 9.96838 76.3456
742 1 1 -0.834 19.0337 23.5686 27.6942
743 1 1 -0.834 24.283 8.23257 37.2086
744 1 1 -0.834 12.0186 13.9261 29.841
745 1 1 -0.834 12.8555 18.8446 79.0118
746 1 1 -0.834 23.7455 1.90775 58.9784
747 1 1 -0.834 18.3183 23.875 54.376
748 1 1 -0.834 12.145 23.8441 19.1418
749 1 1 -0.834 17.4262 19.2753 79.9674
750 1 1 -0.834 4.15107 6.91237 58.1486
751 1 1 -0.834 1.46727 17.8061 60.4795
752 1 1 -0.834 2.30379 18.8112 46.123
753 1 1 -0.834 0.968244 6.23185 71.4595
754 1 1 -0.834 0.0590698 17.1102 81.7635
755 1 1 -0.834 3.19748 4.23434 62.7613
756 1 1 -0.834 2.35702 16.995 79.8266
757 1 1 -0.834 16.4067 19.3418 9.67513
758 1 1 -0.834 15.8802 19.7203 77.5188
759 1 1 -0.834 2.67026 23.164 75.3361
760 1 1 -0.834 2.98556 13.8617 20.5183
761 1 1 -0.834 8.13967 11.2528 30.7189
762 1 1 -0.834 17.8988 12.2123 54.2476
763 1 1 -0.834 15.7709 1.99706 61.8386
764 1 1 -0.834 12.1606 23.1091 72.7747
765 1 1 -0.834 18.5063 11.2847 15.3178
766 1 1 -0.834 14.2587 16.7247 63.0372
767 1 1 -0.834 19.9483 1.13753 1.20684
768 1 1 -0.834 8.13584 4.88234 62.3962