ITEM: TIMESTEP
3500000
ITEM: NUMBER OF ATOMS
4768
ITEM: BOX BOUNDS xy xz yz pp pp pp
0.0000000000000000e+00 2.4433001000000001e+01 0.0000000000000000e+00
0.0000000000000000e+00 2.4433001000000001e+01 0.0000000000000000e+00
0.0000000000000000e+00 8.7675772958794497e+01 0.0000000000000000e+00
ITEM: ATOMS id mol type q x y z
1 1 1 -0.834 1.6008 20.5955 78.8735
2 1 1 -0.834 7.67566 22.4819 11.3468
3 1 1 -0.834 14.8793 21.8813 46.4045
4 1 1 -0.834 16.8404 17.7545 74.1993
5 1 1 -0.834 17.4583 14.2994 54.3718
6 1 1 -0.834 16.7927 19.0064 29.5322
7 1 1 -0.834 13.0991 11.4299 74.3583
8 1 1 -0.834 7.26322 8.74539 63.2176
9 1 1 -0.834 3.67204 11.2618 74.533
10 1 1 -0.834 4.12434 6.5263 7.69519
11 1 1 -0.834 5.17351 23.9372 33.533
12 1 1 -0.834 1.42473 5.55646 65.053
13 1 1 -0.834 15.5482 16.5851 46.4095
14 1 1 -0.834 2.49996 9.08213 46.5083
15 1 1 -0.834 11.6441 24.2361 52.3724
16 1 1 -0.834 10.4165 13.0386 48.0708
17 1 1 -0.834 18.3 3.04324 59.2006
18 1 1 -0.834 10.2151 16.868 15.2637
19 1 1 -0.834 13.9191 18.694 71.9267
20 1 1 -0.834 17.6974 20.4447 2.88778
21 1 1 -0.834 14.6283 20.3066 61.5613
22 1 1 -0.834 2.74057 2.58313 35.7123
23 1 1 -0.834 21.5626 21.0133 39.0591
24 1 1 -0.834 16.2551 22.0016 79.2403
25 1 1 -0.834 0.10125 23.4499 3.00467
26 1 1 -0.834 12.4502 5.76122 62.9398
27 1 1 -0.834 14.9535 16.4198 49.5934
28 1 1 -0.834 4.81352 19.3576 42.9396
29 1 1 -0.834 12.6276 4.03465 55.226
30 1 1 -0.834 0.851397 20.6247 3.98041
31 1 1 -0.834 1.54513 6.7685 37.5696
32 1 1 -0.834 7.36903 3.57567 46.3163
33 1 1 -0.834 3.76173 22.0861 47.8364
34 1 1 -0.834 11.1005 10.3601 60.2409
35 1 1 -0.834 19.7148 17.5712 67.3801
36 1 1 -0.834 16.9811 6.6433 44.0448
37 1 1 -0.834 14.2411 7.60132 79.8667
38 1 1 -0.834 3.67335 3.66992 79.8081
39 1 1 -0.834 13.7386 20.1521 54.2067
40 1 1 -0.834 15.9397 12.5599 30.9178
41 1 1 -0.834 21.7913 3.2317 42.6513
42 1 1 -0.834 13.7385 8.79982 4.04491
43 1 1 -0.834 3.54254 6.66272 47.4301
44 1 1 -0.834 19.8457 15.1836 9.65781
45 1 1 -0.834 22.2563 7.75607 67.0194
46 1 1 -0.834 21.9054 15.4401 68.4191
47 1 1 -0.834 15.3502 17.9212 54.5814
48 1 1 -0.834 17.1992 0.653873 45.1585
49 1 1 -0.834 3.75626 20.0941 75.8022
50 1 1 -0.834 10.2211 17.2052 59.8069
51 1 1 -0.834 1.31758 24.1568 68.4961
52 1 1 -0.834 10.085 0.131875 13.3435
53 1 1 -0.834 22.4112 11.2801 59.2016
54 1 1 -0.834 9.64307 1.31091 39.8708
55 1 1 -0.834 9.42079 5.31388 53.8226
56 1 1 -0.834 13.0324 13.5169 48.6293
57 1 1 -0.834 0.371611 19.0326 57.0631
58 1 1 -0.834 6.07687 24.0928 56.4029
59 1 1 -0.834 12.976 0.505905 69.6845
60 1 1 -0.834 7.7273 1.62637 63.4654
61 1 1 -0.834 1.25147 6.88263 33.9535
62 1 1 -0.834 3.49053 10.6639 79.7878
63 1 1 -0.834 18.993 20.8408 61.5943
64 1 1 -0.834 12.8256 21.978 40.3474
65 1 1 -0.834 6.81895 13.6957 85.3546
66 1 1 -0.834 6.45977 21.565 81.5863
67 1 1 -0.834 9.91987 1.99187 75.4457
68 1 1 -0.834 1.69562 4.69113 13.4455
69 1 1 -0.834 11.2662 7.37734 22.9664
70 1 1 -0.834 10.2812 18.6986 35.3248
71 1 1 -0.834 16.093 20.2893 58.5491
72 1 1 -0.834 7.20623 5.60232 80.2965
73 1 1 -0.834 0.0467249 23.4412 59.0245
74 1 1 -0.834 8.2964 4.86712 67.3532
75 1 1 -0.834 24.1042 22.8625 26.9783
76 1 1 -0.834 19.3756 10.3018 60.1404
77 1 1 -0.834 4.36967 3.19114 62.7365
78 1 1 -0.834 8.19313 19.0507 36.9559
79 1 1 -0.834 5.68089 23.7802 47.2371
80 1 1 -0.834 7.41516 12.2126 77.0816
81 1 1 -0.834 21.6056 21.7885 22.77
82 1 1 -0.834 24.2165 8.02044 64.715
83 1 1 -0.834 6.69244 14.0549 75.1738
84 1 1 -0.834 13.8319 19.5997 12.2989
85 1 1 -0.834 10.8825 15.6324 54.0645
86 1 1 -0.834 10.0422 21.7509 12.3385
87 1 1 -0.834 3.6416 17.7979 85.5819
88 1 1 -0.834 21.2401 8.42781 52.6318
89 1 1 -0.834 6.27217 5.82221 32.9178
90 1 1 -0.834 11.021 14.2746 74.1727
91 1 1 -0.834 23.2446 17.1024 61.8455
92 1 1 -0.834 16.4317 7.18997 85.6224
93 1 1 -0.834 13.4168 17.5796 31.4858
94 1 1 -0.834 22.7169 3.44458 45.8595
95 1 1 -0.834 3.26717 13.2708 18.5817
96 1 1 -0.834 2.65121 10.172 84.8764
97 1 1 -0.834 12.5648 14.4779 5.62629
98 1 1 -0.834 9.58952 21.1689 52.5171
99 1 1 -0.834 14.192 15.6451 29.6397
100 1 1 -0.834 1.77343 9.76689 14.7025
101 1 1 -0.834 19.9406 10.3921 67.1139
102 1 1 -0.834 24.0548 16.4124 77.7617
103 1 1 -0.834 9.63983 15.8567 62.072
104 1 1 -0.834 23.3117 12.8271 71.8731
105 1 1 -0.834 17.834 13.8182 65.4559
106 1 1 -0.834 6.66907 21.481 67.5142
107 1 1 -0.834 17.1207 19.4229 63.8357
108 1 1 -0.834 23.3275 0.164713 46.8856
109 1 1 -0.834 12.6305 15.6016 76.8685
110 1 1 -0.834 20.1298 17.5556 43.6903
111 1 1 -0.834 13.556 1.06095 81.004
112 1 1 -0.834 5.67507 2.02192 6.59644
113 1 1 -0.834 3.43048 8.27427 72.1822
114 1 1 -0.834 8.47024 16.9515 38.4879
115 1 1 -0.834 8.37389 11.2039 67.355
116 1 1 -0.834 6.89187 21.8058 61.2349
117 1 1 -0.834 13.3053 3.39807 0.283265
118 1 1 -0.834 9.55903 8.72855 32.4513
119 1 1 -0.834 16.324 20.4698 68.3372
120 1 1 -0.834 0.66644 11.3357 65.2736
121 1 1 -0.834 8.4833 11.542 42.1496
122 1 1 -0.834 15.0493 16.6198 67.3794
123 1 1 -0.834 8.30937 19.0623 59.9246
124 1 1 -0.834 11.0216 5.40794 3.99216
125 1 1 -0.834 8.38577 12.0463 72.5502
126 1 1 -0.834 17.7971 9.34427 76.5252
127 1 1 -0.834 14.2755 23.7677 78.4253
128 1 1 -0.834 0.171122 1.78873 80.2824
129 1 1 -0.834 7.82483 23.8045 69.052
130 1 1 -0.834 23.3262 13.3362 82.9485
131 1 1 -0.834 19.3131 1.79106 49.0632
132 1 1 -0.834 12.1302 22.6732 73.8969
133 1 1 -0.834 23.1068 15.8491 22.5861
134 1 1 -0.834 10.7049 13.1227 62.1108
135 1 1 -0.834 23.126 17.031 1.26506
136 1 1 -0.834 23.5128 19.5642 73.7304
137 1 1 -0.834 4.45586 9.53108 27.6378
138 1 1 -0.834 14.8582 2.6106 41.2866
139 1 1 -0.834 3.81486 11.2439 63.1455
140 1 1 -0.834 6.96649 6.91141 60.84
141 1 1 -0.834 19.8981 12.1074 58.2003
142 1 1 -0.834 19.4831 15.1925 45.3104
143 1 1 -0.834 12.2951 1.53442 56.0863
144 1 1 -0.834 3.18262 16.7457 49.0557
145 1 1 -0.834 3.29732 9.55817 56.9104
146 1 1 -0.834 3.35847 12.9819 0.448131
147 1 1 -0.834 17.6167 16.7162 65.5237
148 1 1 -0.834 10.7798 11.4403 51.2332
149 1 1 -0.834 1.94295 1.53087 58.2248
150 1 1 -0.834 11.1322 11.6785 54.0785
151 1 1 -0.834 18.3778 5.15655 84.3682
152 1 1 -0.834 2.87873 13.449 81.9124
153 1 1 -0.834 12.7118 10.4483 49.1878
154 1 1 -0.834 10.7604 23.5305 77.771
155 1 1 -0.834 0.703951 1.37287 10.8227
156 1 1 -0.834 2.48569 3.25338 68.5332
157 1 1 -0.834 24.3832 13.2392 50.9815
158 1 1 -0.834 8.65766 6.66029 69.6986
159 1 1 -0.834 14.8893 8.25178 58.7366
160 1 1 -0.834 1.2354 20.1104 66.7326
161 1 1 -0.834 23.2204 9.75594 49.4372
162 1 1 -0.834 10.6868 23.1612 45.5939
163 1 1 -0.834 18.9312 23.0664 75.595
164 1 1 -0.834 17.7467 12.7988 35.2006
165 1 1 -0.834 15.9033 3.35396 46.7446
166 1 1 -0.834 7.14581 5.39292 58.4818
167 1 1 -0.834 6.96814 17.8931 45.7487
168 1 1 -0.834 19.6463 14.1583 63.4223
169 1 1 -0.834 17.4276 13.1134 70.7672
170 1 1 -0.834 21.1407 20.3862 27.3081
171 1 1 -0.834 22.0116 15.9419 46.1487
172 1 1 -0.834 19.771 14.6803 33.9015
173 1 1 -0.834 13.2521 0.710741 49.0631
174 1 1 -0.834 9.77495 6.486 59.8234
175 1 1 -0.834 17.9989 11.1508 12.1931
176 1 1 -0.834 5.80788 22.4607 53.3488
177 1 1 -0.834 1.63849 8.87573 66.4716
178 1 1 -0.834 1.1934 20.7067 28.0825
179 1 1 -0.834 18.0095 16.9042 54.76
180 1 1 -0.834 7.59388 17.1061 71.6108
181 1 1 -0.834 2.15522 24.4321 75.7315
182 1 1 -0.834 2.99666 15.1058 58.3239
183 1 1 -0.834 4.49365 3.00011 55.9302
184 1 1 -0.834 23.6487 6.52195 17.3324
185 1 1 -0.834 14.8393 0.802999 46.6326
186 1 1 -0.834 13.6796 9.50136 26.8387
187 1 1 -0.834 19.6215 17.7096 80.1683
188 1 1 -0.834 17.9244 15.4874 75.7071
189 1 1 -0.834 1.25163 1.24275 52.0265
190 1 1 -0.834 3.6207 23.7299 78.4033
191 1 1 -0.834 18.9118 1.54253 71.4146
192 1 1 -0.834 19.4558 9.38621 49.8549
193 1 1 -0.834 20.0409 1.98182 77.0884
194 1 1 -0.834 15.8722 15.612 4.7711
195 1 1 -0.834 23.0737 0.145291 32.0291
196 1 1 -0.834 8.12305 11.223 86.5858
197 1 1 -0.834 10.1932 3.49929 46.9331
198 1 1 -0.834 12.7208 23.2556 59.9093
199 1 1 -0.834 12.6403 5.3311 77.6825
200 1 1 -0.834 12.8597 8.72761 62.5224
201 1 1 -0.834 4.5236 5.34355 57.8966
202 1 1 -0.834 14.0957 1.66883 66.6273
203 1 1 -0.834 18.5303 2.61812 79.3888
204 1 1 -0.834 6.60893 20.2545 76.0621
205 1 1 -0.834 21.0861 21.1714 59.808
206 1 1 -0.834 20.2131 10.0071 43.1465
207 1 1 -0.834 13.2488 23.5014 42.7478
208 1 1 -0.834 3.93773 8.90871 60.3401
209 1 1 -0.834 22.4139 13.9039 64.1602
210 1 1 -0.834 12.7508 9.66876 55.1045
211 1 1 -0.834 12.9474 22.2997 76.675
212 1 1 -0.834 19.5491 6.27841 45.0399
213 1 1 -0.834 3.02042 23.2415 66.4951
214 1 1 -0.834 21.2584 14.1786 78.9887
215 1 1 -0.834 3.78235 11.1281 82.6643
216 1 1 -0.834 12.165 9.13936 6.34733
217 1 1 -0.834 24.3226 16.8022 55.3063
218 1 1 -0.834 22.4685 20.618 2.00696
219 1 1 -0.834 7.29515 14.6904 82.8463
220 1 1 -0.834 13.5644 7.75178 46.9239
221 1 1 -0.834 13.8621 12.9812 71.0097
222 1 1 -0.834 4.77082 0.388994 38.0478
223 1 1 -0.834 17.6419 6.96335 73.087
224 1 1 -0.834 3.88205 1.01488 60.3876
225 1 1 -0.834 8.78451 4.36232 2.95294
226 1 1 -0.834 5.73096 12.2475 1.18071
227 1 1 -0.834 5.9051 21.9453 64.8019
228 1 1 -0.834 13.868 7.79325 43.7763
229 1 1 -0.834 20.8905 5.66281 65.7073
230 1 1 -0.834 22.0306 7.50776 61.0851
231 1 1 -0.834 18.3346 22.2858 49.9602
232 1 1 -0.834 17.874 12.1022 67.8281
233 1 1 -0.834 1.69945 2.28194 61.9766
234 1 1 -0.834 18.9476 23.4272 52.4635
235 1 1 -0.834 8.49784 5.64914 25.9787
236 1 1 -0.834 9.95601 19.2789 81.9988
237 1 1 -0.834 9.21442 22.5825 62.5633
238 1 1 -0.834 2.16855 14.7132 21.0153
239 1 1 -0.834 22.6148 12.9418 16.6436
240 1 1 -0.834 2.20332 7.71812 49.7571
241 1 1 -0.834 20.7104 12.3956 44.5352
242 1 1 -0.834 11.5421 13.0304 31.9306
243 1 1 -0.834 10.6326 5.70271 86.757
244 1 1 -0.834 23.3426 19.2981 29.8777
245 1 1 -0.834 12.8626 18.5739 66.836
246 1 1 -0.834 8.55325 15.772 74.507
247 1 1 -0.834 6.97251 18.9753 66.4605
248 1 1 -0.834 4.4063 18.3206 56.2466
249 1 1 -0.834 17.8503 7.87035 56.8508
250 1 1 -0.834 7.62816 18.1875 15.5066
251 1 1 -0.834 9.35367 22.5818 39.9683
252 1 1 -0.834 21.1327 4.33314 78.7852
253 1 1 -0.834 8.33641 16.952 54.4343
254 1 1 -0.834 5.28244 4.03484 75.1826
255 1 1 -0.834 6.86542 2.21052 55.0559
256 1 1 -0.834 3.24502 9.85739 50.766
257 1 1 -0.834 23.4307 17.5312 85.4866
258 1 1 -0.834 4.4312 12.5407 51.7675
259 1 1 -0.834 19.4183 7.75289 75.0007
260 1 1 -0.834 21.8759 22.3136 52.6421
261 1 1 -0.834 4.04272 12.3125 68.7369
262 1 1 -0.834 11.4256 6.15694 56.4039
263 1 1 -0.834 6.74171 16.7419 58.5088
264 1 1 -0.834 24.3181 13.5423 66.8949
265 1 1 -0.834 16.6085 6.15734 23.4515
266 1 1 -0.834 2.95398 3.27716 28.6052
267 1 1 -0.834 18.6336 23.9152 65.0628
268 1 1 -0.834 6.4593 11.3103 29.3222
269 1 1 -0.834 9.53049 8.41516 77.4805
270 1 1 -0.834 23.1305 12.6027 74.951
271 1 1 -0.834 4.13154 19.87 80.7802
272 1 1 -0.834 13.6289 2.49684 76.4566
273 1 1 -0.834 2.41211 18.0542 63.2569
274 1 1 -0.834 4.30071 7.66674 52.412
275 1 1 -0.834 18.764 14.9329 50.0528
276 1 1 -0.834 11.7001 10.3943 72.2398
277 1 1 -0.834 21.827 6.58566 81.9321
278 1 1 -0.834 0.0892465 23.9825 8.70376
279 1 1 -0.834 22.7673 6.10556 58.6511
280 1 1 -0.834 15.8963 4.24702 0.938274
281 1 1 -0.834 2.73141 17.4335 80.7226
282 1 1 -0.834 14.6805 7.31021 83.4265
283 1 1 -0.834 8.72794 19.8157 63.8768
284 1 1 -0.834 2.16365 13.8431 55.7864
285 1 1 -0.834 21.5547 21.2602 8.07423
286 1 1 -0.834 21.7228 1.55187 62.4412
287 1 1 -0.834 5.08096 9.48335 69.2937
288 1 1 -0.834 15.0998 13.1014 45.2119
289 1 1 -0.834 18.9138 17.7888 47.6294
290 1 1 -0.834 1.08811 8.44225 57.9738
291 1 1 -0.834 3.84451 17.3719 73.4447
292 1 1 -0.834 1.47107 8.33534 74.8156
293 1 1 -0.834 3.54632 8.21354 34.0301
294 1 1 -0.834 7.71371 2.06824 67.8113
295 1 1 -0.834 0.829406 12.1255 45.0396
296 1 1 -0.834 0.127468 1.38083 6.12362
297 1 1 -0.834 15.1585 14.0821 66.6564
298 1 1 -0.834 3.24494 21.5835 42.6362
299 1 1 -0.834 22.8371 23.2709 56.6599
300 1 1 -0.834 24.1054 17.9179 65.0193
301 1 1 -0.834 1.92543 2.97381 32.0797
302 1 1 -0.834 24.2117 10.6034 62.9739
303 1 1 -0.834 2.35308 1.77628 13.203
304 1 1 -0.834 14.8286 22.4445 63.1529
305 1 1 -0.834 24.1463 5.09104 67.4202
306 1 1 -0.834 20.132 11.3052 74.8965
307 1 1 -0.834 10.4406 0.113676 16.2038
308 1 1 -0.834 20.6348 17.073 57.0221
309 1 1 -0.834 16.5211 23.7745 82.4346
310 1 1 -0.834 10.8938 10.5748 27.534
311 1 1 -0.834 22.4037 8.98864 44.6107
312 1 1 -0.834 21.4769 0.636104 25.3523
313 1 1 -0.834 22.1571 12.0172 62.0013
314 1 1 -0.834 19.8256 0.963312 43.4495
315 1 1 -0.834 0.552927 15.973 24.5418
316 1 1 -0.834 0.45866 0.61972 28.4494
317 1 1 -0.834 6.10531 15.2113 77.8545
318 1 1 -0.834 21.1612 11.4174 50.9592
319 1 1 -0.834 1.43001 19.5066 25.6282
320 1 1 -0.834 20.988 17.8795 71.1171
321 1 1 -0.834 4.18665 16.7072 22.2602
322 1 1 -0.834 15.8536 21.9975 76.0526
323 1 1 -0.834 7.31105 1.33665 49.7021
324 1 1 -0.834 0.145604 16.2059 74.5103
325 1 1 -0.834 12.1789 3.283 48.8927
326 1 1 -0.834 11.3648 7.00334 79.7112
327 1 1 -0.834 3.66382 13.2317 71.4396
328 1 1 -0.834 24.2921 8.17778 69.6455
329 1 1 -0.834 1.58659 18.902 50.5797
330 1 1 -0.834 5.03702 7.8737 43.7841
331 1 1 -0.834 20.2807 6.07746 56.9706
332 1 1 -0.834 9.40523 9.35796 44.0448
333 1 1 -0.834 9.13579 7.80165 54.8376
334 1 1 -0.834 19.0011 5.75488 48.1258
335 1 1 -0.834 4.83088 5.74561 54.9106
336 1 1 -0.834 21.6552 11.6682 12.9789
337 1 1 -0.834 1.56613 1.61027 70.6725
338 1 1 -0.834 4.37176 1.35461 10.43
339 1 1 -0.834 9.8733 20.9999 78.3997
340 1 1 -0.834 5.73787 12.2698 80.3426
341 1 1 -0.834 17.5313 22.8931 57.8294
342 1 1 -0.834 21.7584 16.3361 28.1602
343 1 1 -0.834 16.289 5.68142 57.0934
344 1 1 -0.834 13.9812 20.3517 78.4402
345 1 1 -0.834 5.57692 20.4171 50.8841
346 1 1 -0.834 1.02992 24.0056 61.8649
347 1 1 -0.834 0.999435 21.7152 1.17186
348 1 1 -0.834 15.0849 7.50779 20.9292
349 1 1 -0.834 7.00695 7.95803 27.5361
350 1 1 -0.834 19.7135 16.1199 77.8645
351 1 1 -0.834 15.0995 3.34752 69.5677
352 1 1 -0.834 1.79555 19.1171 59.8618
353 1 1 -0.834 2.77305 1.348 48.2617
354 1 1 -0.834 18.7014 15.0163 72.3633
355 1 1 -0.834 11.3447 16.2937 33.1027
356 1 1 -0.834 11.5692 18.2156 37.7185
357 1 1 -0.834 16.8694 17.0034 51.3573
358 1 1 -0.834 1.18304 11.5443 68.3328
359 1 1 -0.834 6.53826 21.8423 40.9522
360 1 1 -0.834 12.23 16.0456 80.9747
361 1 1 -0.834 3.847 17.307 46.2155
362 1 1 -0.834 1.32087 17.8522 1.38133
363 1 1 -0.834 12.4317 22.8201 16.0002
364 1 1 -0.834 7.59601 9.70441 25.4245
365 1 1 -0.834 16.3396 19.6675 51.6937
366 1 1 -0.834 2.16445 3.36514 75.8479
367 1 1 -0.834 15.0472 3.55538 49.332
368 1 1 -0.834 7.97597 9.37149 40.6116
369 1 1 -0.834 15.7696 21.9221 50.239
370 1 1 -0.834 18.3497 3.29954 51.4481
371 1 1 -0.834 3.84198 14.1883 78.9045
372 1 1 -0.834 15.494 5.26333 72.2107
373 1 1 -0.834 6.0763 10.3996 43.2151
374 1 1 -0.834 23.8186 9.9202 71.7967
375 1 1 -0.834 3.80102 13.2009 65.9011
376 1 1 -0.834 6.01191 11.3512 65.3486
377 1 1 -0.834 10.4207 2.25378 68.6481
378 1 1 -0.834 0.161143 15.8853 47.2824
379 1 1 -0.834 13.4076 10.5325 79.4409
380 1 1 -0.834 17.938 5.45945 20.9352
381 1 1 -0.834 22.5347 18.505 5.11845
382 1 1 -0.834 6.48174 12.3033 26.7041
383 1 1 -0.834 6.67488 8.52523 50.9745
384 1 1 -0.834 1.46315 11.9403 16.6182
385 1 1 -0.834 8.6111 11.5557 46.6845
386 1 1 -0.834 9.30865 1.03194 54.3823
387 1 1 -0.834 15.7606 23.4363 21.9091
388 1 1 -0.834 24.2983 17.4015 71.9381
389 1 1 -0.834 13.4848 12.9403 29.5119
390 1 1 -0.834 15.4782 17.4185 36.6601
391 1 1 -0.834 8.1767 14.3241 55.0823
392 1 1 -0.834 10.229 9.04144 52.6041
393 1 1 -0.834 18.1713 23.1109 4.18884
394 1 1 -0.834 14.6262 12.7523 58.1722
395 1 1 -0.834 7.25686 0.810338 10.9655
396 1 1 -0.834 4.21682 15.4057 1.5455
397 1 1 -0.834 9.92039 13.0581 43.9384
398 1 1 -0.834 2.74388 18.3939 77.7975
399 1 1 -0.834 18.122 13.1114 79.1773
400 1 1 -0.834 11.4437 4.86302 66.0627
401 1 1 -0.834 18.6775 15.3519 6.98059
402 1 1 -0.834 11.2726 9.06573 65.881
403 1 1 -0.834 22.5587 1.60412 50.7821
404 1 1 -0.834 11.1416 20.019 62.1998
405 1 1 -0.834 5.60399 10.6757 23.5305
406 1 1 -0.834 8.84694 13.8182 27.2361
407 1 1 -0.834 5.59018 19.3923 59.0788
408 1 1 -0.834 0.428754 7.19218 72.3609
409 1 1 -0.834 16.1242 15.0979 61.7697
410 1 1 -0.834 4.69818 16.6879 63.7475
411 1 1 -0.834 15.3244 17.0786 12.0283
412 1 1 -0.834 23.6597 13.9402 20.3971
413 1 1 -0.834 23.8594 15.2117 57.3751
414 1 1 -0.834 21.066 23.8712 63.9385
415 1 1 -0.834 20.3057 17.9883 6.76598
416 1 1 -0.834 13.2773 11.4865 33.7141
417 1 1 -0.834 0.608171 3.85737 81.8192
418 1 1 -0.834 24.2418 8.34327 36.0429
419 1 1 -0.834 20.9057 3.23902 60.1347
420 1 1 -0.834 15.8464 23.2255 85.2902
421 1 1 -0.834 23.3838 2.53858 64.4594
422 1 1 -0.834 16.7013 12.6837 47.6878
423 1 1 -0.834 20.6156 5.78917 42.3144
424 1 1 -0.834 5.83215 9.16684 58.2669
425 1 1 -0.834 21.6769 3.18344 72.1747
426 1 1 -0.834 12.1574 17.8997 54.603
427 1 1 -0.834 3.70317 5.14175 60.538
428 1 1 -0.834 6.34423 13.1477 43.8401
429 1 1 -0.834 13.4147 13.888 35.5931
430 1 1 -0.834 19.4591 23.3533 45.2876
431 1 1 -0.834 22.9682 19.0541 59.0523
432 1 1 -0.834 16.8683 13.9526 51.6164
433 1 1 -0.834 3.33732 20.1053 21.1251
434 1 1 -0.834 11.4239 10.2146 0.354633
435 1 1 -0.834 19.4366 7.37209 80.7491
436 1 1 -0.834 21.555 15.52 52.3603
437 1 1 -0.834 19.4875 4.63519 18.2378
438 1 1 -0.834 19.195 3.53206 66.2547
439 1 1 -0.834 20.5291 19.5915 3.55604
440 1 1 -0.834 13.0178 10.9694 46.279
441 1 1 -0.834 8.99763 23.7717 56.6257
442 1 1 -0.834 13.7803 17.4218 52.0389
443 1 1 -0.834 0.23202 9.30436 16.9075
444 1 1 -0.834 21.9854 4.76047 55.0197
445 1 1 -0.834 17.3594 13.0099 58.7153
446 1 1 -0.834 5.65942 19.6693 13.8441
447 1 1 -0.834 24.3776 7.70928 41.7119
448 1 1 -0.834 19.5823 8.27777 14.7827
449 1 1 -0.834 20.3052 23.8049 47.9999
450 1 1 -0.834 4.57236 8.20872 79.0437
451 1 1 -0.834 20.5943 11.7154 39.3252
452 1 1 -0.834 0.699976 8.61667 80.5152
453 1 1 -0.834 10.5427 19.4946 13.9054
454 1 1 -0.834 16.9694 12.4759 61.3565
455 1 1 -0.834 1.3166 21.6562 76.2053
456 1 1 -0.834 17.4049 18.8743 4.95518
457 1 1 -0.834 11.0453 6.98172 71.175
458 1 1 -0.834 6.75496 24.2964 81.1636
459 1 1 -0.834 0.712102 15.3004 18.1933
460 1 1 -0.834 12.9358 10.6545 58.3773
461 1 1 -0.834 11.4973 8.90419 45.8618
462 1 1 -0.834 5.25312 17.1637 75.8808
463 1 1 -0.834 11.1282 19.5355 10.7439
464 1 1 -0.834 5.80516 17.3259 49.5782
465 1 1 -0.834 20.1878 4.80389 52.6503
466 1 1 -0.834 1.38341 13.21 74.8472
467 1 1 -0.834 8.298 12.209 24.4137
468 1 1 -0.834 20.2275 19.0377 74.0192
469 1 1 -0.834 22.034 19.4736 41.3612
470 1 1 -0.834 0.275802 8.39456 77.6738
471 1 1 -0.834 9.34623 0.61908 80.7625
472 1 1 -0.834 20.5337 6.04248 39.7129
473 1 1 -0.834 18.068 20.8895 74.133
474 1 1 -0.834 19.2476 16.9025 4.45851
475 1 1 -0.834 10.5578 19.9214 65.9498
476 1 1 -0.834 11.9387 19.6744 76.5902
477 1 1 -0.834 15.0036 23.8472 74.2306
478 1 1 -0.834 9.77132 23.558 71.0878
479 1 1 -0.834 18.9699 3.98263 46.2939
480 1 1 -0.834 23.6576 2.79844 60.8286
481 1 1 -0.834 23.5617 15.1875 70.6607
482 1 1 -0.834 1.60188 4.29366 59.2192
483 1 1 -0.834 16.3198 11.0053 33.1002
484 1 1 -0.834 11.1743 5.9789 43.294
485 1 1 -0.834 4.55217 5.81555 10.3743
486 1 1 -0.834 14.6661 0.876449 64.0804
487 1 1 -0.834 16.6864 3.88976 67.1054
488 1 1 -0.834 0.537082 21.8229 51.034
489 1 1 -0.834 6.68668 24.0225 35.9536
490 1 1 -0.834 14.2274 8.907 76.3872
491 1 1 -0.834 4.73939 15.3689 81.6713
492 1 1 -0.834 24.4098 23.6602 71.0108
493 1 1 -0.834 0.798845 11.481 19.7439
494 1 1 -0.834 14.0868 11.302 53.0831
495 1 1 -0.834 9.45304 4.013 70.7024
496 1 1 -0.834 3.58727 13.9271 42.4455
497 1 1 -0.834 5.38655 21.6566 38.4759
498 1 1 -0.834 16.0707 1.72046 80.7339
499 1 1 -0.834 4.08724 14.1268 75.9505
500 1 1 -0.834 17.9531 12.5038 44.7488
501 1 1 -0.834 21.198 15.0147 42.6333
502 1 1 -0.834 2.83905 8.83663 42.6599
503 1 1 -0.834 20.3251 23.231 71.7729
504 1 1 -0.834 18.2552 9.29501 45.4715
505 1 1 -0.834 14.1295 7.27839 71.4019
506 1 1 -0.834 4.1178 13.1135 21.776
507 1 1 -0.834 19.4887 8.14446 65.3706
508 1 1 -0.834 20.52 10.5229 69.8761
509 1 1 -0.834 20.9848 9.05451 19.8316
510 1 1 -0.834 16.663 1.3935 68.4734
511 1 1 -0.834 21.7863 16.4193 65.3087
512 1 1 -0.834 1.16311 0.569776 64.3909
513 1 1 -0.834 10.7244 15.8624 8.81383
514 1 1 -0.834 14.5326 18.2283 81.2777
515 1 1 -0.834 16.0179 17.8785 31.8402
516 1 1 -0.834 15.1139 12.9127 5.55285
517 1 1 -0.834 7.23303 4.68653 6.02745
518 1 1 -0.834 19.385 20.5178 6.6488
519 1 1 -0.834 9.2654 21.6379 83.3883
520 1 1 -0.834 5.53412 10.7438 71.7895
521 1 1 -0.834 4.18995 13.8558 48.5027
522 1 1 -0.834 17.0817 12.643 74.6927
523 1 1 -0.834 5.09898 0.0997223 8.29588
524 1 1 -0.834 16.2214 11.7405 77.0214
525 1 1 -0.834 22.1472 10.3118 35.9734
526 1 1 -0.834 1.9986 18.8039 23.1013
527 1 1 -0.834 8.12957 1.13513 60.1414
528 1 1 -0.834 22.7059 0.465556 43.7051
529 1 1 -0.834 10.4149 22.6366 68.2314
530 1 1 -0.834 9.72249 14.3276 59.0326
531 1 1 -0.834 2.44316 6.48161 62.6844
532 1 1 -0.834 10.982 11.3304 25.0324
533 1 1 -0.834 13.4777 12.5723 77.6818
534 1 1 -0.834 20.6207 9.24299 56.6837
535 1 1 -0.834 6.36892 23.5949 77.8456
536 1 1 -0.834 8.46973 5.90321 43.6315
537 1 1 -0.834 6.8899 16.6978 61.1285
538 1 1 -0.834 21.7276 24.2091 3.17408
539 1 1 -0.834 15.0812 8.37199 56.0297
540 1 1 -0.834 23.8017 10.0006 13.2331
541 1 1 -0.834 12.9452 2.26553 83.6387
542 1 1 -0.834 19.2814 5.56326 15.0807
543 1 1 -0.834 17.7021 19.561 56.577
544 1 1 -0.834 5.17252 0.412924 66.5874
545 1 1 -0.834 1.6216 17.7816 53.2152
546 1 1 -0.834 15.9332 19.6879 33.8325
547 1 1 -0.834 20.1877 22.0753 77.5852
548 1 1 -0.834 21.6642 4.55316 16.1011
549 1 1 -0.834 2.09471 21.3304 69.1403
550 1 1 -0.834 5.90803 8.60766 29.8506
551 1 1 -0.834 19.945 21.291 54.432
552 1 1 -0.834 6.81929 6.88076 56.1836
553 1 1 -0.834 12.2833 21.4048 64.3092
554 1 1 -0.834 18.7538 18.2973 9.12196
555 1 1 -0.834 5.67664 15.7728 43.9999
556 1 1 -0.834 17.1803 2.28129 74.8631
557 1 1 -0.834 22.5243 11.0661 18.9998
558 1 1 -0.834 16.7624 22.733 43.7858
559 1 1 -0.834 22.3217 9.15482 83.0185
560 1 1 -0.834 6.51946 7.91015 71.2048
561 1 1 -0.834 20.8029 18.6031 76.6409
562 1 1 -0.834 1.48218 7.40188 13.1969
563 1 1 -0.834 5.9649 2.23233 58.5226
564 1 1 -0.834 24.1666 6.02981 51.0876
565 1 1 -0.834 13.1765 17.9515 8.85218
566 1 1 -0.834 21.0784 20.0239 63.5692
567 1 1 -0.834 21.185 1.81174 27.8176
568 1 1 -0.834 10.818 8.57833 57.4878
569 1 1 -0.834 16.9984 21.3588 54.3467
570 1 1 -0.834 7.55114 20.9602 15.9787
571 1 1 -0.834 11.8288 9.94813 30.7947
572 1 1 -0.834 7.33015 22.9526 14.105
573 1 1 -0.834 4.10469 6.36527 70.2828
574 1 1 -0.834 13.6831 17.7739 63.2261
575 1 1 -0.834 8.33756 10.2068 70.2036
576 1 1 -0.834 1.41988 19.5509 86.3466
577 1 1 -0.834 13.4586 14.1734 60.0778
578 1 1 -0.834 12.2836 22.7199 48.1244
579 1 1 -0.834 15.3445 20.7999 73.2956
580 1 1 -0.834 2.39357 5.16161 30.651
581 1 1 -0.834 23.1629 22.3908 76.144
582 1 1 -0.834 11.403 18.3983 49.1618
583 1 1 -0.834 10.9219 6.23634 51.6842
584 1 1 -0.834 13.0992 6.89688 53.1325
585 1 1 -0.834 1.46479 6.03404 69.4812
586 1 1 -0.834 19.0725 9.14002 71.7606
587 1 1 -0.834 23.0847 4.23702 75.6753
588 1 1 -0.834 23.3601 6.8816 75.7752
589 1 1 -0.834 13.0473 19.7941 15.0565
590 1 1 -0.834 15.4386 19.5442 7.72229
591 1 1 -0.834 8.22542 21.8541 37.1789
592 1 1 -0.834 9.49193 15.5317 42.6084
593 1 1 -0.834 3.70207 20.3716 52.9976
594 1 1 -0.834 8.91703 17.5572 76.6844
595 1 1 -0.834 6.85743 9.84973 6.24917
596 1 1 -0.834 13.4149 19.3079 35.0826
597 1 1 -0.834 14.0201 16.8266 73.7485
598 1 1 -0.834 2.01079 15.611 76.5951
599 1 1 -0.834 6.14641 20.119 55.2326
600 1 1 -0.834 8.23928 8.62902 2.58399
601 1 1 -0.834 22.9809 13.3481 45.9981
602 1 1 -0.834 5.97501 19.7994 48.0598
603 1 1 -0.834 7.35313 7.07141 6.95646
604 1 1 -0.834 3.44629 12.7894 59.6412
605 1 1 -0.834 13.6582 22.796 66.1297
606 1 1 -0.834 18.5559 12.2188 49.906
607 1 1 -0.834 3.85005 0.0513422 53.1831
608 1 1 -0.834 12.5419 18.5442 69.6577
609 1 1 -0.834 4.34417 0.226777 50.3241
610 1 1 -0.834 23.0938 20.8236 25.1409
611 1 1 -0.834 14.1789 14.6331 64.1379
612 1 1 -0.834 23.3008 6.29998 39.2846
613 1 1 -0.834 5.4079 16.4962 66.2722
614 1 1 -0.834 17.456 17.2691 44.3972
615 1 1 -0.834 20.0653 2.22332 74.251
616 1 1 -0.834 24.2419 14.8302 85.3434
617 1 1 -0.834 10.8972 0.651166 60.468
618 1 1 -0.834 15.4673 9.07612 66.6187
619 1 1 -0.834 17.4613 7.34655 60.3021
620 1 1 -0.834 23.8595 21.5063 6.57369
621 1 1 -0.834 6.78495 2.97294 52.2203
622 1 1 -0.834 9.28486 4.27975 56.3704
623 1 1 -0.834 8.7654 16.8756 65.9269
624 1 1 -0.834 7.58153 17.7857 82.9812
625 1 1 -0.834 14.6369 12.2591 50.6564
626 1 1 -0.834 2.16227 22.1311 55.1489
627 1 1 -0.834 17.856 16.4669 10.9853
628 1 1 -0.834 13.1145 22.1383 51.3413
629 1 1 -0.834 19.5283 9.45025 35.6403
630 1 1 -0.834 13.6736 13.8681 79.9882
631 1 1 -0.834 8.33232 24.1337 47.4817
632 1 1 -0.834 24.1954 2.54881 74.0639
633 1 1 -0.834 20.7982 9.18042 47.3058
634 1 1 -0.834 0.632488 6.78001 47.783
635 1 1 -0.834 8.77344 6.75988 75.5951
636 1 1 -0.834 0.984619 14.1313 79.967
637 1 1 -0.834 22.377 15.2251 75.9225
638 1 1 -0.834 17.179 6.81633 66.3637
639 1 1 -0.834 7.86006 13.6382 79.4754
640 1 1 -0.834 1.22633 9.23029 61.0893
641 1 1 -0.834 22.793 22.2012 45.7199
642 1 1 -0.834 9.26873 18.4535 68.4536
643 1 1 -0.834 6.27356 9.8775 48.489
644 1 1 -0.834 0.819285 22.5448 30.2074
645 1 1 -0.834 5.66513 2.0586 78.4113
646 1 1 -0.834 9.28228 10.3355 4.99049
647 1 1 -0.834 12.6811 6.85163 74.9208
648 1 1 -0.834 3.70565 11.8698 54.9228
649 1 1 -0.834 6.83945 11.0846 51.7121
650 1 1 -0.834 22.1677 1.42947 79.073
651 1 1 -0.834 17.1208 3.59691 24.6446
652 1 1 -0.834 20.0946 1.01589 66.9539
653 1 1 -0.834 13.0273 20.643 37.9113
654 1 1 -0.834 12.8145 17.2126 13.5575
655 1 1 -0.834 22.5635 12.9585 48.8666
656 1 1 -0.834 2.00165 2.41373 54.9609
657 1 1 -0.834 23.437 2.88506 56.3109
658 1 1 -0.834 11.7883 5.45516 68.7722
659 1 1 -0.834 24.1295 19.5829 69.5311
660 1 1 -0.834 0.0131903 19.6344 62.4414
661 1 1 -0.834 7.57459 19.076 40.0867
662 1 1 -0.834 10.6533 4.52614 75.8677
663 1 1 -0.834 11.9072 20.3828 80.1689
664 1 1 -0.834 15.2188 14.2287 12.7348
665 1 1 -0.834 23.983 17.3547 67.826
666 1 1 -0.834 4.97064 15.3229 69.202
667 1 1 -0.834 21.5707 8.79698 76.9006
668 1 1 -0.834 22.6705 5.94894 10.9422
669 1 1 -0.834 9.17646 4.72613 62.0645
670 1 1 -0.834 18.0843 14.9521 81.0749
671 1 1 -0.834 23.3229 0.82797 54.4391
672 1 1 -0.834 4.25016 7.10208 31.5572
673 1 1 -0.834 15.3024 19.1117 65.981
674 1 1 -0.834 4.22641 1.03484 31.5915
675 1 1 -0.834 7.29703 9.98066 74.6349
676 1 1 -0.834 14.6412 2.73641 72.8276
677 1 1 -0.834 18.0859 14.3066 12.5938
678 1 1 -0.834 13.3057 15.1816 8.16072
679 1 1 -0.834 5.02522 0.593956 63.8154
680 1 1 -0.834 23.2576 9.69365 57.0401
681 1 1 -0.834 20.7379 22.6616 31.8484
682 1 1 -0.834 17.4204 19.8003 43.6081
683 1 1 -0.834 14.6711 16.6044 57.0331
684 1 1 -0.834 4.17276 8.67204 75.2577
685 1 1 -0.834 5.55955 14.1451 54.0683
686 1 1 -0.834 2.39882 22.8956 10.1383
687 1 1 -0.834 9.89655 8.48554 63.4768
688 1 1 -0.834 1.05832 8.14123 52.7894
689 1 1 -0.834 13.0576 23.9068 84.342
690 1 1 -0.834 9.80861 8.29098 28.5219
691 1 1 -0.834 10.7531 2.87663 58.0902
692 1 1 -0.834 2.88663 1.30691 45.5604
693 1 1 -0.834 14.9249 11.0758 8.4749
694 1 1 -0.834 7.48239 9.35776 79.2297
695 1 1 -0.834 13.6507 2.62639 61.9422
696 1 1 -0.834 16.0171 8.8244 69.4925
697 1 1 -0.834 10.5138 14.2524 64.6977
698 1 1 -0.834 17.9293 0.753824 0.167307
699 1 1 -0.834 12.4955 3.48965 23.015
700 1 1 -0.834 9.95024 4.15928 79.2572
701 1 1 -0.834 6.48063 11.3153 3.81414
702 1 1 -0.834 1.68888 13.3331 47.5484
703 1 1 -0.834 0.529461 17.5928 21.2766
704 1 1 -0.834 17.8694 17.0878 62.7139
705 1 1 -0.834 14.9308 0.104961 51.3418
706 1 1 -0.834 23.4287 15.981 80.7308
707 1 1 -0.834 10.9824 2.56939 62.5027
708 1 1 -0.834 2.28385 9.62459 69.6224
709 1 1 -0.834 20.1654 13.7227 69.6833
710 1 1 -0.834 4.31805 15.0399 85.9891
711 1 1 -0.834 19.5243 17.4351 51.8535
712 1 1 -0.834 20.5368 14.786 60.8359
713 1 1 -0.834 5.51672 3.37501 30.8102
714 1 1 -0.834 24.2216 14.7196 43.159
715 1 1 -0.834 2.32875 16.3371 68.6933
716 1 1 -0.834 10.7931 8.34573 73.5088
717 1 1 -0.834 2.2447 1.67225 78.1586
718 1 1 -0.834 19.991 9.20429 12.301
719 1 1 -0.834 24.2517 22.8976 53.888
720 1 1 -0.834 5.16935 5.77179 29.1717
721 1 1 -0.834 7.29738 2.03878 36.8076
722 1 1 -0.834 3.42801 1.68501 73.2023
723 1 1 -0.834 1.16806 15.183 0.11286
724 1 1 -0.834 21.7116 8.76682 38.2876
725 1 1 -0.834 17.1858 9.17371 51.4228
726 1 1 -0.834 19.3853 1.17771 2.53747
727 1 1 -0.834 22.914 12.712 56.1057
728 1 1 -0.834 15.9424 19.2663 48.6329
729 1 1 -0.834 7.16395 14.101 57.7422
730 1 1 -0.834 17.3136 23.2768 47.2274
731 1 1 -0.834 1.78176 16.0478 60.9413
732 1 1 -0.834 6.17177 6.63329 74.8158
733 1 1 -0.834 20.8367 1.91618 53.2503
734 1 1 -0.834 6.91598 9.12766 0.150681
735 1 1 -0.834 9.57531 10.9158 2.16791
736 1 1 -0.834 0.626327 11.9715 84.5417
737 1 1 -0.834 13.2567 12.767 62.4302
738 1 1 -0.834 8.27372 9.52404 56.903
739 1 1 -0.834 7.8721 21.225 45.8062
740 1 1 -0.834 8.45532 13.185 1.02299
741 1 1 -0.834 7.91213 3.12384 73.7934
742 1 1 -0.834 3.64884 14.8779 24.3242
743 1 1 -0.834 16.3847 7.35456 77.5712
744 1 1 -0.834 14.1564 14.8889 33.0639
745 1 1 -0.834 20.6935 18.1501 0.93525
746 1 1 -0.834 8.08446 15.6314 49.123
747 1 1 -0.834 2.59124 7.32797 54.819
748 1 1 -0.834 0.479809 1.90564 44.917
749 1 1 -0.834 10.2512 20.791 70.0544
750 1 1 -0.834 23.0659 11.9034 69.2066
751 1 1 -0.834 21.4084 9.63672 63.7738
752 1 1 -0.834 24.2672 3.78305 53.4074
753 1 1 -0.834 22.4746 5.66534 73.4164
754 1 1 -0.834 16.1262 9.79906 60.725
755 1 1 -0.834 17.0895 6.09078 69.4055
756 1 1 -0.834 18.7388 21.2722 70.3867
757 1 1 -0.834 1.18642 23.4949 79.9118
758 1 1 -0.834 13.7521 1.3782 44.2866
759 1 1 -0.834 16.3857 16.8968 79.73
760 1 1 -0.834 20.0722 13.4107 14.2433
761 1 1 -0.834 2.32596 23.3847 33.0275
762 1 1 -0.834 17.2345 6.82177 82.3223
763 1 1 -0.834 15.6415 9.32955 45.5642
764 1 1 -0.834 18.8725 12.0272 55.141
765 1 1 -0.834 13.4155 5.17768 20.9184
766 1 1 -0.834 10.0286 3.29219 50.5651
767 1 1 -0.834 23.982 3.47179 8.07553
768 1 1 -0.834 16.0858 15.0967 35.4397