ITEM: TIMESTEP
1000000
ITEM: NUMBER OF ATOMS
5487
ITEM: BOX BOUNDS pp pp pp
2.4900000000000000e-01 2.4248999999999999e+01
2.5950000000000001e-01 2.4259499999999999e+01
0.0000000000000000e+00 1.0536952658408562e+02
ITEM: ATOMS id mol type q x y z
1 1 2 0.417 2.74758 20.2004 55.1742
2 1 2 0.417 2.42632 21.4507 55.8355
3 1 5 -0.834 2.016 20.633 55.5075
4 2 2 0.417 20.6959 10.7624 62.1559
5 2 2 0.417 21.0318 12.1434 62.4355
6 2 5 -0.834 21.2604 11.4402 61.8557
7 3 2 0.417 15.592 20.7179 62.1893
8 3 2 0.417 14.2604 20.0533 61.9652
9 3 5 -0.834 14.8074 20.7179 61.5943
10 4 2 0.417 3.27015 5.80102 62.5816
11 4 2 0.417 4.36795 5.24087 61.8464
12 4 5 -0.834 3.76295 4.97943 62.5397
13 5 2 0.417 2.42364 7.83154 35.5839
14 5 2 0.417 2.05042 9.19209 36.0801
15 5 5 -0.834 2.63006 8.75594 35.4766
16 6 2 0.417 21.6912 2.46697 45.03
17 6 2 0.417 20.6628 3.27659 45.7701
18 6 5 -0.834 21.1687 3.26386 44.8893
19 7 2 0.417 18.9238 14.6383 53.9147
20 7 2 0.417 18.0828 15.8472 53.3689
21 7 5 -0.834 18.9574 15.6192 53.6997
22 8 2 0.417 21.804 22.5414 24.9675
23 8 2 0.417 22.9281 22.0693 25.8371
24 8 5 -0.834 22.5113 21.892 24.9033
25 9 2 0.417 5.19227 3.07203 91.6183
26 9 2 0.417 5.86334 1.83669 91.5058
27 9 5 -0.834 5.98401 2.63084 91.9843
28 10 2 0.417 6.09949 18.9188 93.9127
29 10 2 0.417 5.32022 19.8816 94.6585
30 10 5 -0.834 5.80537 19.7622 93.8268
31 11 2 0.417 11.9655 12.6254 40.1911
32 11 2 0.417 13.1271 11.6941 39.9834
33 11 5 -0.834 12.383 12.1524 39.5044
34 12 2 0.417 21.9209 3.12413 43.0594
35 12 2 0.417 22.7961 1.91155 43.1738
36 12 5 -0.834 22.591 2.61128 42.4939
37 13 2 0.417 10.875 13.6323 79.54
38 13 2 0.417 11.2296 15.0926 79.6958
39 13 5 -0.834 10.7137 14.5169 79.1407
40 14 2 0.417 5.46955 21.3107 58.342
41 14 2 0.417 4.00338 21.199 58.0693
42 14 5 -0.834 4.82485 20.8499 57.7353
43 15 2 0.417 0.472865 11.794 12.9508
44 15 2 0.417 1.4576 11.0978 12.1306
45 15 5 -0.834 1.34818 11.3926 13.0416
46 16 2 0.417 12.4006 19.412 63.0458
47 16 2 0.417 13.645 18.4865 63.3576
48 16 5 -0.834 13.0852 18.8881 62.6645
49 17 2 0.417 3.74005 5.04794 75.825
50 17 2 0.417 3.69844 6.26757 76.769
51 17 5 -0.834 3.63692 5.25848 76.7521
52 18 2 0.417 24.1643 1.59195 81.3473
53 18 2 0.417 23.0982 2.49798 80.7751
54 18 5 -0.834 23.1997 1.65104 81.1995
55 19 2 0.417 19.9824 4.86928 61.0687
56 19 2 0.417 18.6482 4.18415 60.772
57 19 5 -0.834 19.5018 4.42798 60.3181
58 20 2 0.417 18.1167 8.18698 71.5468
59 20 2 0.417 18.3938 9.53933 71.0341
60 20 5 -0.834 17.7048 8.80237 70.9511
61 21 2 0.417 3.88565 24.1699 38.7149
62 21 2 0.417 5.1893 0.511103 39.3341
63 21 5 -0.834 4.26896 0.462806 39.4954
64 22 2 0.417 24.0856 7.77985 51.9571
65 22 2 0.417 22.6776 7.87285 51.6269
66 22 5 -0.834 23.5063 8.45563 51.5693
67 23 2 0.417 22.3704 4.35383 84.4019
68 23 2 0.417 23.0709 5.66533 84.7564
69 23 5 -0.834 23.2688 4.70323 84.6468
70 24 2 0.417 23.2254 7.35777 66.9931
71 24 2 0.417 23.5876 8.58068 66.0433
72 24 5 -0.834 23.6368 7.54737 66.0736
73 25 2 0.417 2.58178 0.704804 53.7639
74 25 2 0.417 1.64225 1.23458 54.8808
75 25 5 -0.834 1.61406 0.799933 53.984
76 26 2 0.417 14.6437 17.985 43.0182
77 26 2 0.417 14.3061 19.3671 43.5953
78 26 5 -0.834 14.7901 18.5238 43.8542
79 27 2 0.417 23.2754 3.9698 59.8007
80 27 2 0.417 24.1281 5.09445 59.4941
81 27 5 -0.834 24.1299 4.39522 60.0823
82 28 2 0.417 18.57 18.6566 41.5225
83 28 2 0.417 19.9506 19.2568 41.618
84 28 5 -0.834 19.0463 19.5334 41.3991
85 29 2 0.417 22.9912 9.94135 83.6589
86 29 2 0.417 22.9634 9.0143 84.8525
87 29 5 -0.834 22.8193 8.9629 83.8514
88 30 2 0.417 19.5343 17.578 62.8438
89 30 2 0.417 18.2492 18.3378 62.5625
90 30 5 -0.834 19.2292 18.2972 62.2666
91 31 2 0.417 6.75331 22.7134 4.37124
92 31 2 0.417 7.66361 22.7906 3.13819
93 31 5 -0.834 7.64389 22.5788 4.0764
94 32 2 0.417 2.82485 13.2723 89.9876
95 32 2 0.417 2.39726 14.645 89.6053
96 32 5 -0.834 2.81178 13.8141 89.198
97 33 2 0.417 6.35618 12.7555 46.0692
98 33 2 0.417 7.73697 13.4333 46.4339
99 33 5 -0.834 7.134 13.1405 45.623
100 34 2 0.417 0.340785 20.5026 69.2414
101 34 2 0.417 24.2034 18.9914 69.1996
102 34 5 -0.834 23.9566 19.831 68.7398
103 35 2 0.417 20.9276 22.2411 76.1948
104 35 2 0.417 20.9443 22.5713 74.7244
105 35 5 -0.834 20.3848 22.218 75.4056
106 36 2 0.417 7.55164 1.39671 73.5807
107 36 2 0.417 8.18776 2.76511 74.004
108 36 5 -0.834 8.39426 1.99071 73.4452
109 37 2 0.417 4.3587 1.48632 57.7369
110 37 2 0.417 4.87265 1.80744 56.399
111 37 5 -0.834 4.6221 1.03977 56.9031
112 38 2 0.417 12.6197 1.84798 70.474
113 38 2 0.417 12.0263 3.11241 69.9868
114 38 5 -0.834 12.2726 2.22013 69.694
115 39 2 0.417 0.895295 24.09 47.0942
116 39 2 0.417 0.724017 22.6203 46.864
117 39 5 -0.834 24.2347 23.476 46.8297
118 40 2 0.417 19.3315 2.46239 13.4465
119 40 2 0.417 19.7482 1.90202 14.7913
120 40 5 -0.834 20.0726 2.09887 13.9443
121 41 2 0.417 16.9095 21.1566 78.9787
122 41 2 0.417 16.8538 21.5027 80.4669
123 41 5 -0.834 16.9095 21.9319 79.5831
124 42 2 0.417 17.3696 8.57771 59.8614
125 42 2 0.417 17.9981 9.95303 59.6941
126 42 5 -0.834 17.8046 9.1097 59.1668
127 43 2 0.417 18.439 9.77608 45.9909
128 43 2 0.417 19.0568 11.0687 46.3204
129 43 5 -0.834 18.964 10.4912 45.6073
130 44 2 0.417 18.234 22.703 42.7656
131 44 2 0.417 17.8105 21.358 42.9171
132 44 5 -0.834 17.682 22.0851 42.3086
133 45 2 0.417 2.07587 14.1301 15.0226
134 45 2 0.417 1.86994 12.6869 14.2801
135 45 5 -0.834 2.30707 13.1751 15.0402
136 46 2 0.417 12.0021 8.93072 53.1682
137 46 2 0.417 13.2069 9.61763 53.5276
138 46 5 -0.834 12.9727 8.73258 53.1615
139 47 2 0.417 20.2316 7.68111 74.3152
140 47 2 0.417 19.5053 6.37128 73.8984
141 47 5 -0.834 20.1636 7.03117 73.5396
142 48 2 0.417 8.302 24.2306 84.5997
143 48 2 0.417 8.41512 1.67625 84.755
144 48 5 -0.834 7.85191 1.02453 84.2654
145 49 2 0.417 23.4288 23.526 82.6692
146 49 2 0.417 23.6037 23.1126 81.2818
147 49 5 -0.834 23.3559 22.7115 82.1193
148 50 2 0.417 1.50792 3.33171 85.8402
149 50 2 0.417 0.405125 3.33037 84.809
150 50 5 -0.834 1.22934 2.85095 85.0805
151 51 2 0.417 11.1202 18.4451 90.6001
152 51 2 0.417 12.26 18.5019 89.5428
153 51 5 -0.834 11.797 17.9272 90.1871
154 52 2 0.417 12.5857 2.11575 87.0963
155 52 2 0.417 12.5303 0.838998 87.8016
156 52 5 -0.834 13.0742 1.26484 87.1218
157 53 2 0.417 17.0061 13.3845 40.299
158 53 2 0.417 17.3332 11.8602 40.3805
159 53 5 -0.834 17.702 12.7369 40.5327
160 54 2 0.417 18.2469 0.866724 49.4352
161 54 2 0.417 17.6323 23.6453 50.0141
162 54 5 -0.834 17.3731 0.503066 49.687
163 55 2 0.417 8.00253 22.2043 61.9022
164 55 2 0.417 9.09817 21.2691 62.5281
165 55 5 -0.834 8.75442 21.6439 61.6838
166 56 2 0.417 6.02665 4.54184 50.959
167 56 2 0.417 5.38459 4.95494 49.6534
168 56 5 -0.834 6.03917 4.30916 50.0292
169 57 2 0.417 2.76952 11.0357 15.1414
170 57 2 0.417 1.44832 10.3777 14.7025
171 57 5 -0.834 2.2444 10.2552 15.2927
172 58 2 0.417 16.1899 5.49829 45.1092
173 58 2 0.417 17.636 5.72388 45.2787
174 58 5 -0.834 16.8339 6.24434 45.3011
175 59 2 0.417 16.8913 2.23285 75.0105
176 59 2 0.417 17.7042 1.84756 73.7976
177 59 5 -0.834 16.7449 2.13375 74.0484
178 60 2 0.417 16.025 14.2445 88.5589
179 60 2 0.417 15.029 13.1246 88.7494
180 60 5 -0.834 15.8733 13.3879 89.0566
181 61 2 0.417 22.2567 13.54 65.4014
182 61 2 0.417 21.6351 12.4686 64.5041
183 61 5 -0.834 22.4408 12.6661 65.0029
184 62 2 0.417 24.2013 19.6982 64.6294
185 62 2 0.417 23.2234 20.0394 63.4952
186 62 5 -0.834 24.1263 20.2087 63.8401
187 63 2 0.417 3.03045 0.950758 46.5439
188 63 2 0.417 2.56758 1.68969 47.834
189 63 5 -0.834 2.54971 0.820679 47.4235
190 64 2 0.417 5.9893 2.91899 60.3344
191 64 2 0.417 4.67295 3.3346 60.2199
192 64 5 -0.834 5.48949 3.49279 59.7503
193 65 2 0.417 2.39108 18.5311 45.0649
194 65 2 0.417 1.00283 18.1781 45.1031
195 65 5 -0.834 1.71519 18.3817 44.4923
196 66 2 0.417 14.9203 6.80073 48.5744
197 66 2 0.417 13.5626 7.04642 48.9043
198 66 5 -0.834 14.2146 7.39845 48.2516
199 67 2 0.417 21.8776 7.56544 69.5495
200 67 2 0.417 22.6291 6.29679 69.0795
201 67 5 -0.834 22.2844 7.12818 68.7571
202 68 2 0.417 19.5528 6.02038 40.0644
203 68 2 0.417 19.3161 5.02075 41.1017
204 68 5 -0.834 18.8152 5.65035 40.5996
205 69 2 0.417 5.39233 7.3652 26.5552
206 69 2 0.417 5.05164 6.76294 25.214
207 69 5 -0.834 4.83182 6.62572 26.1859
208 70 2 0.417 7.75812 7.64187 59.8972
209 70 2 0.417 8.51838 6.64879 59.1521
210 70 5 -0.834 8.44571 7.63469 59.1727
211 71 2 0.417 12.6751 14.718 82.9365
212 71 2 0.417 13.7668 13.8025 82.2633
213 71 5 -0.834 13.2074 14.6087 82.1715
214 72 2 0.417 17.7 17.7685 82.5171
215 72 2 0.417 16.7126 17.4603 81.3268
216 72 5 -0.834 17.5049 18.0369 81.5887
217 73 2 0.417 2.14883 19.8685 75.6635
218 73 2 0.417 0.748408 20.3553 75.582
219 73 5 -0.834 1.64573 20.5882 75.2182
220 74 2 0.417 14.2043 16.7431 53.3268
221 74 2 0.417 13.8229 17.8464 52.508
222 74 5 -0.834 14.6053 17.5415 52.9674
223 75 2 0.417 10.0936 11.092 63.6418
224 75 2 0.417 11.4141 10.8478 64.3285
225 75 5 -0.834 10.6497 11.4454 64.3485
226 76 2 0.417 5.95508 3.32814 53.8854
227 76 2 0.417 5.00475 2.13157 53.9344
228 76 5 -0.834 5.6812 2.59177 54.4782
229 77 2 0.417 24.2285 17.287 46.7557
230 77 2 0.417 22.9916 18.0673 47.21
231 77 5 -0.834 23.5917 17.9653 46.4393
232 78 2 0.417 13.7402 18.8884 1.75085
233 78 2 0.417 14.1332 19.6578 2.86717
234 78 5 -0.834 14.3214 19.6842 1.91361
235 79 2 0.417 13.1795 8.8819 48.0166
236 79 2 0.417 11.9543 8.98916 48.7794
237 79 5 -0.834 12.3702 9.43198 48.0375
238 80 2 0.417 1.00758 22.1047 88.0903
239 80 2 0.417 1.59704 21.8226 86.7202
240 80 5 -0.834 0.801489 22.0929 87.0997
241 81 2 0.417 10.1334 23.45 58.9394
242 81 2 0.417 11.1906 23.1595 57.9109
243 81 5 -0.834 10.1995 23.2481 57.9558
244 82 2 0.417 15.1701 18.2821 4.5032
245 82 2 0.417 14.0756 18.5245 5.44372
246 82 5 -0.834 14.2466 18.6267 4.50542
247 83 2 0.417 13.5699 18.8759 38.9538
248 83 2 0.417 11.9659 18.8726 39.1186
249 83 5 -0.834 12.8007 18.7476 39.5451
250 84 2 0.417 13.4304 8.1078 87.2826
251 84 2 0.417 13.7384 9.09152 88.4164
252 84 5 -0.834 13.7633 9.09056 87.3964
253 85 2 0.417 4.1166 9.85409 85.7705
254 85 2 0.417 5.04734 9.8176 86.9291
255 85 5 -0.834 4.87195 9.41385 86.0627
256 86 2 0.417 13.148 5.1094 50.4306
257 86 2 0.417 13.4783 3.72474 50.5589
258 86 5 -0.834 13.318 4.32238 49.8833
259 87 2 0.417 11.9018 14.7616 22.573
260 87 2 0.417 13.285 14.9906 23.2564
261 87 5 -0.834 12.3583 14.7498 23.4646
262 88 2 0.417 21.347 1.95709 90.9601
263 88 2 0.417 20.0352 1.37807 90.5046
264 88 5 -0.834 20.8662 1.74719 90.1151
265 89 2 0.417 14.5509 2.01093 58.4962
266 89 2 0.417 13.6778 2.37234 59.702
267 89 5 -0.834 14.007 1.56117 59.2171
268 90 2 0.417 7.83301 22.7026 65.6634
269 90 2 0.417 9.23678 22.4898 65.19
270 90 5 -0.834 8.35625 22.0442 65.2028
271 91 2 0.417 5.39907 7.34423 70.4478
272 91 2 0.417 5.64848 8.65951 71.036
273 91 5 -0.834 5.38514 7.7704 71.3454
274 92 2 0.417 23.4214 2.80343 70.0991
275 92 2 0.417 0.513827 1.83056 70.1475
276 92 5 -0.834 23.5505 1.84736 70.2879
277 93 2 0.417 23.1536 11.419 42.1685
278 93 2 0.417 23.8441 11.1973 43.4619
279 93 5 -0.834 24.0472 11.5248 42.5635
280 94 2 0.417 8.15578 3.93817 77.8854
281 94 2 0.417 7.48913 3.32398 76.6964
282 94 5 -0.834 7.92987 3.0675 77.5542
283 95 2 0.417 5.02189 13.8925 78.3976
284 95 2 0.417 4.58726 13.1908 79.6321
285 95 5 -0.834 4.43833 14.007 79.1548
286 96 2 0.417 22.8739 19.6581 76.9124
287 96 2 0.417 22.9617 21.0386 76.8672
288 96 5 -0.834 23.468 20.3574 76.57
289 97 2 0.417 0.267925 12.7021 64.6287
290 97 2 0.417 1.47766 13.5387 64.5193
291 97 5 -0.834 1.18774 12.6256 64.3818
292 98 2 0.417 7.1186 16.7886 94.5167
293 98 2 0.417 7.04013 17.0045 93.1193
294 98 5 -0.834 6.52091 17.1797 93.8919
295 99 2 0.417 0.424987 8.10372 43.8064
296 99 2 0.417 0.766469 8.19011 42.4071
297 99 5 -0.834 1.19313 8.16846 43.2785
298 100 2 0.417 0.639796 0.433486 62.4063
299 100 2 0.417 1.28946 1.70697 62.9845
300 100 5 -0.834 1.5005 0.793761 62.6838
301 101 2 0.417 12.557 18.3589 6.86523
302 101 2 0.417 13.551 18.4699 7.96197
303 101 5 -0.834 13.2402 18.958 7.23467
304 102 2 0.417 5.71367 15.0151 84.9407
305 102 2 0.417 5.24199 13.7392 85.4224
306 102 5 -0.834 5.36466 14.1716 84.5794
307 103 2 0.417 16.5966 16.516 87.3074
308 103 2 0.417 15.2153 16.1199 86.82
309 103 5 -0.834 15.9551 15.8141 87.445
310 104 2 0.417 2.33238 8.1312 50.9458
311 104 2 0.417 1.72008 6.72257 50.7608
312 104 5 -0.834 2.39534 7.31493 50.3939
313 105 2 0.417 0.321961 1.69122 39.13
314 105 2 0.417 23.8947 0.750361 40.2798
315 105 5 -0.834 23.5876 1.12493 39.3901
316 106 2 0.417 7.39354 21.8458 38.4822
317 106 2 0.417 6.29847 22.5488 37.8692
318 106 5 -0.834 6.50171 22.0753 38.6738
319 107 2 0.417 2.67906 12.9117 83.3934
320 107 2 0.417 3.71797 13.9867 83.6267
321 107 5 -0.834 3.019 13.7383 82.9712
322 108 2 0.417 6.568 11.0539 38.9642
323 108 2 0.417 7.62251 11.8353 39.7222
324 108 5 -0.834 7.15655 11.758 38.8975
325 109 2 0.417 3.40458 3.45423 42.7886
326 109 2 0.417 2.55115 2.3165 42.6424
327 109 5 -0.834 3.05186 2.78998 43.3288
328 110 2 0.417 22.8076 14.3862 9.77107
329 110 2 0.417 0.26392 14.3787 10.0141
330 110 5 -0.834 23.5242 13.8049 10.0746
331 111 2 0.417 16.2072 15.8166 74.6531
332 111 2 0.417 16.831 14.5917 74.9852
333 111 5 -0.834 17.0012 15.3221 74.3617
334 112 2 0.417 21.6365 18.3925 42.7615
335 112 2 0.417 22.5364 19.3732 41.9762
336 112 5 -0.834 21.6506 19.1314 42.079
337 113 2 0.417 18.4971 22.9891 91.1396
338 113 2 0.417 19.5283 22.8606 89.978
339 113 5 -0.834 18.7758 23.3993 90.2777
340 114 2 0.417 23.2033 12.2696 84.3472
341 114 2 0.417 22.4903 12.3771 82.9734
342 114 5 -0.834 23.1984 11.8107 83.4473
343 115 2 0.417 20.495 8.25818 50.795
344 115 2 0.417 19.218 8.29651 50.2631
345 115 5 -0.834 20.0947 8.73996 50.1115
346 116 2 0.417 15.8655 0.282665 54.3657
347 116 2 0.417 16.4918 23.0363 54.8568
348 116 5 -0.834 16.2349 23.4505 54.0721
349 117 2 0.417 16.8711 15.0997 104.964
350 117 2 0.417 16.1614 15.217 0.855408
351 117 5 -0.834 16.5594 14.4736 0.283796
352 118 2 0.417 4.06382 23.1856 3.48196
353 118 2 0.417 5.16568 22.1946 3.43853
354 118 5 -0.834 4.92657 23.0071 3.85622
355 119 2 0.417 24.2336 1.18645 84.6238
356 119 2 0.417 23.1227 24.0952 84.8188
357 119 5 -0.834 23.8307 0.402499 84.2125
358 120 2 0.417 0.893167 4.79825 47.1058
359 120 2 0.417 0.661282 6.29473 46.6896
360 120 5 -0.834 0.990815 5.42737 46.3814
361 121 2 0.417 9.21527 7.67793 71.4951
362 121 2 0.417 8.09184 6.70344 71.412
363 121 5 -0.834 8.77406 7.08864 70.8712
364 122 2 0.417 13.8572 20.2811 54.7811
365 122 2 0.417 12.7888 19.3307 55.0581
366 122 5 -0.834 13.01 20.221 55.2963
367 123 2 0.417 18.7094 19.3204 60.6495
368 123 2 0.417 17.253 19.9352 60.3573
369 123 5 -0.834 18.0761 19.6253 59.9338
370 124 2 0.417 16.472 8.90095 80.0599
371 124 2 0.417 17.7527 8.47423 79.5439
372 124 5 -0.834 17.3751 8.89636 80.3022
373 125 2 0.417 11.6335 18.1247 82.5621
374 125 2 0.417 10.5794 17.675 81.5696
375 125 5 -0.834 11.5729 17.6873 81.711
376 126 2 0.417 16.6831 8.81353 41.9132
377 126 2 0.417 16.4625 10.2291 42.123
378 126 5 -0.834 16.536 9.62898 41.3751
379 127 2 0.417 19.9639 14.5229 42.4577
380 127 2 0.417 18.9232 13.7588 41.6597
381 127 5 -0.834 19.6427 13.6377 42.3339
382 128 2 0.417 12.3337 15.7065 42.0323
383 128 2 0.417 12.4524 14.913 43.2813
384 128 5 -0.834 12.0712 15.7679 42.962
385 129 2 0.417 12.8196 2.72108 39.2831
386 129 2 0.417 12.3649 2.37512 37.9134
387 129 5 -0.834 12.6813 3.11683 38.3589
388 130 2 0.417 14.3728 13.6509 47.798
389 130 2 0.417 15.1855 12.4099 47.6587
390 130 5 -0.834 14.2786 12.7513 47.4713
391 131 2 0.417 4.25386 18.1738 88.6485
392 131 2 0.417 3.74141 16.745 88.8816
393 131 5 -0.834 4.35223 17.2355 88.3422
394 132 2 0.417 13.8623 9.34154 39.7222
395 132 2 0.417 15.2793 9.69748 39.9472
396 132 5 -0.834 14.5507 9.79299 39.2527
397 133 2 0.417 3.27874 15.9833 52.5588
398 133 2 0.417 3.59964 17.4117 52.0571
399 133 5 -0.834 2.97016 16.6523 51.9108
400 134 2 0.417 0.762774 19.2747 41.3226
401 134 2 0.417 0.637218 19.1237 42.7482
402 134 5 -0.834 0.370182 19.719 42.0605
403 135 2 0.417 22.3525 7.79239 86.9796
404 135 2 0.417 22.9023 9.04262 87.4071
405 135 5 -0.834 22.8349 8.59027 86.5548
406 136 2 0.417 15.7635 18.9646 57.2732
407 136 2 0.417 14.8181 20.1072 57.7243
408 136 5 -0.834 15.6432 19.927 57.264
409 137 2 0.417 8.16363 19.4244 35.7758
410 137 2 0.417 7.8746 20.9276 35.6762
411 137 5 -0.834 8.13821 20.2603 36.3659
412 138 2 0.417 15.1956 6.43252 54.5028
413 138 2 0.417 16.4765 5.9385 53.7948
414 138 5 -0.834 15.6091 6.31561 53.618
415 139 2 0.417 0.594658 22.9771 68.3176
416 139 2 0.417 24.1187 22.8139 69.755
417 139 5 -0.834 0.724727 22.4168 69.0774
418 140 2 0.417 4.78693 5.82838 67.7622
419 140 2 0.417 3.46568 5.75275 67.0487
420 140 5 -0.834 4.0395 5.23666 67.612
421 141 2 0.417 19.2955 12.6181 69.5574
422 141 2 0.417 18.4898 13.0832 70.7621
423 141 5 -0.834 18.8501 12.2573 70.3768
424 142 2 0.417 8.98918 5.29482 51.099
425 142 2 0.417 7.96397 4.54519 50.2012
426 142 5 -0.834 8.90865 4.59079 50.426
427 143 2 0.417 23.0436 9.50581 74.9705
428 143 2 0.417 22.5967 8.14371 74.3425
429 143 5 -0.834 23.279 8.82252 74.3219
430 144 2 0.417 9.20281 5.26592 88.7803
431 144 2 0.417 9.28547 6.42149 88.0152
432 144 5 -0.834 9.56058 5.53692 87.9326
433 145 2 0.417 24.1879 15.2413 53.2264
434 145 2 0.417 23.3733 13.9623 53.2095
435 145 5 -0.834 24.0085 14.4935 53.7168
436 146 2 0.417 10.7611 11.0722 26.2855
437 146 2 0.417 10.1642 11.6708 24.9759
438 146 5 -0.834 10.9445 11.3187 25.321
439 147 2 0.417 11.8615 15.4294 39.4309
440 147 2 0.417 12.282 16.6207 40.2826
441 147 5 -0.834 12.568 15.6942 40.0876
442 148 2 0.417 20.9272 21.2345 53.7246
443 148 2 0.417 21.0724 20.6537 55.0727
444 148 5 -0.834 20.4187 21.0396 54.4938
445 149 2 0.417 9.61031 20.0091 7.12038
446 149 2 0.417 10.6237 20.7314 8.00122
447 149 5 -0.834 9.9669 19.967 8.00657
448 150 2 0.417 20.4777 14.4734 73.4327
449 150 2 0.417 21.7912 13.6489 73.5412
450 150 5 -0.834 20.9523 13.6589 73.137
451 151 2 0.417 18.5399 10.2247 38.8778
452 151 2 0.417 17.9904 9.52167 40.0964
453 151 5 -0.834 18.6741 9.4391 39.4472
454 152 2 0.417 2.09834 2.90722 6.91822
455 152 2 0.417 2.98828 1.62475 6.89156
456 152 5 -0.834 2.06515 1.92562 7.04559
457 153 2 0.417 1.2017 19.3084 56.9199
458 153 2 0.417 1.33902 18.3255 58.0128
459 153 5 -0.834 0.999995 19.2102 57.8812
460 154 2 0.417 20.0457 1.71252 37.8535
461 154 2 0.417 19.0081 2.06276 36.9365
462 154 5 -0.834 19.8192 1.48847 36.9523
463 155 2 0.417 18.2695 12.958 36.4049
464 155 2 0.417 17.3456 11.8867 36.8668
465 155 5 -0.834 18.276 12.1457 36.9255
466 156 2 0.417 5.96304 15.6226 50.0889
467 156 2 0.417 5.52478 17.0671 49.8644
468 156 5 -0.834 6.30078 16.4637 49.7566
469 157 2 0.417 12.4026 9.03061 61.5875
470 157 2 0.417 11.331 10.0596 61.6287
471 157 5 -0.834 11.5258 9.18202 61.2166
472 158 2 0.417 6.28512 4.80807 26.1809
473 158 2 0.417 5.02356 4.46574 26.8044
474 158 5 -0.834 5.8623 4.01996 26.5857
475 159 2 0.417 15.2989 21.1537 83.9198
476 159 2 0.417 14.5423 21.7238 85.0608
477 159 5 -0.834 14.4196 21.6156 84.0683
478 160 2 0.417 17.3739 11.5152 80.8603
479 160 2 0.417 15.8431 11.5665 80.7878
480 160 5 -0.834 16.6558 12.1218 80.6018
481 161 2 0.417 1.65492 23.4597 26.5872
482 161 2 0.417 2.14101 24.1899 27.7221
483 161 5 -0.834 2.13181 23.2852 27.4132
484 162 2 0.417 3.14703 15.8244 69.8135
485 162 2 0.417 3.07001 14.7259 70.8984
486 162 5 -0.834 2.46946 15.1465 70.236
487 163 2 0.417 7.67065 12.2389 90.9197
488 163 2 0.417 6.51367 12.9591 90.1673
489 163 5 -0.834 7.23606 12.3418 90.0011
490 164 2 0.417 24.0971 20.5629 84.1
491 164 2 0.417 24.2244 21.3842 82.8866
492 164 5 -0.834 0.569311 20.5135 83.2736
493 165 2 0.417 21.3189 1.56473 66.031
494 165 2 0.417 21.5983 3.05406 66.0385
495 165 5 -0.834 21.8363 2.23243 65.5262
496 166 2 0.417 18.001 21.6963 17.3059
497 166 2 0.417 18.1155 21.8121 18.7469
498 166 5 -0.834 18.3102 21.1656 18.0367
499 167 2 0.417 9.71841 8.54932 56.1791
500 167 2 0.417 9.68493 7.08161 56.5821
501 167 5 -0.834 10.2626 7.73171 56.1255
502 168 2 0.417 19.5254 17.5734 52.5936
503 168 2 0.417 20.6619 17.7718 53.3624
504 168 5 -0.834 20.4096 17.9134 52.4133
505 169 2 0.417 17.8006 20.5822 37.7408
506 169 2 0.417 17.4946 19.1906 37.104
507 169 5 -0.834 17.6082 20.1376 36.881
508 170 2 0.417 16.4773 2.96485 61.6922
509 170 2 0.417 16.939 2.53979 60.2253
510 170 5 -0.834 16.7837 3.30493 60.7769
511 171 2 0.417 1.43339 1.31003 86.9034
512 171 2 0.417 1.10812 24.0199 87.4528
513 171 5 -0.834 0.838835 0.949013 87.5593
514 172 2 0.417 14.4804 13.2552 75.2338
515 172 2 0.417 13.3048 14.1031 74.9968
516 172 5 -0.834 13.9036 13.4857 74.4821
517 173 2 0.417 10.7491 11.3938 38.3847
518 173 2 0.417 10.4667 9.87509 38.5876
519 173 5 -0.834 10.4525 10.6076 37.8982
520 174 2 0.417 12.2387 19.1702 87.336
521 174 2 0.417 10.9875 18.4074 86.9565
522 174 5 -0.834 11.7364 18.92 86.5535
523 175 2 0.417 20.5049 23.2877 43.5343
524 175 2 0.417 19.6595 0.347381 44.3224
525 175 5 -0.834 19.7692 23.9337 43.4087
526 176 2 0.417 9.52212 7.14835 69.3862
527 176 2 0.417 10.4531 6.47746 68.2736
528 176 5 -0.834 9.61679 7.07991 68.3965
529 177 2 0.417 11.206 0.813027 35.9528
530 177 2 0.417 10.3778 0.400623 37.1519
531 177 5 -0.834 10.8974 1.1679 36.8219
532 178 2 0.417 20.9358 7.51206 39.6945
533 178 2 0.417 19.8886 8.06271 38.7025
534 178 5 -0.834 20.403 7.21687 38.8949
535 179 2 0.417 2.68456 17.5891 67.5328
536 179 2 0.417 1.46818 16.8311 67.8053
537 179 5 -0.834 2.23924 16.7735 67.2388
538 180 2 0.417 3.72252 22.5936 35.8079
539 180 2 0.417 3.97001 21.1686 36.0279
540 180 5 -0.834 3.30927 21.7608 35.6167
541 181 2 0.417 15.9719 22.377 76.6764
542 181 2 0.417 15.3402 22.8687 75.4237
543 181 5 -0.834 15.5359 21.9883 75.9009
544 182 2 0.417 23.3989 2.38162 104.871
545 182 2 0.417 23.9859 3.71409 104.839
546 182 5 -0.834 23.7236 3.04383 0.116113
547 183 2 0.417 16.8359 2.97287 69.6233
548 183 2 0.417 15.378 3.29851 69.9126
549 183 5 -0.834 16.0026 3.09386 69.1917
550 184 2 0.417 10.5176 4.08823 90.0328
551 184 2 0.417 9.76199 3.26186 91.0122
552 184 5 -0.834 9.99086 3.25652 90.0397
553 185 2 0.417 11.431 18.2637 54.1693
554 185 2 0.417 11.0983 17.4314 55.3497
555 185 5 -0.834 11.8618 17.8034 54.8974
556 186 2 0.417 21.6501 11.1102 35.4174
557 186 2 0.417 22.6055 10.6919 34.2931
558 186 5 -0.834 22.4956 11.3998 35.0194
559 187 2 0.417 16.0468 19.6292 26.3106
560 187 2 0.417 14.8115 19.0895 25.9651
561 187 5 -0.834 15.1378 19.9412 26.1649
562 188 2 0.417 14.2195 17.9902 45.584
563 188 2 0.417 13.02 18.6132 46.1358
564 188 5 -0.834 13.7087 18.0796 46.4101
565 189 2 0.417 22.7397 17.2975 91.3746
566 189 2 0.417 22.269 16.0362 91.4037
567 189 5 -0.834 23.0512 16.4346 90.9534
568 190 2 0.417 11.4713 15.7063 31.2298
569 190 2 0.417 11.1965 15.9778 29.754
570 190 5 -0.834 11.3153 16.443 30.6028
571 191 2 0.417 10.5822 10.3718 57.6041
572 191 2 0.417 10.7915 11.8456 57.6505
573 191 5 -0.834 10.5395 11.1751 56.9901
574 192 2 0.417 14.7795 8.00703 50.6079
575 192 2 0.417 14.5633 8.59976 52.026
576 192 5 -0.834 14.8402 8.79323 51.0909
577 193 2 0.417 9.75336 17.0777 38.6595
578 193 2 0.417 9.54012 15.8386 39.5533
579 193 5 -0.834 10.0973 16.1615 38.827
580 194 2 0.417 22.7802 17.6068 44.9105
581 194 2 0.417 22.9775 16.4553 44.008
582 194 5 -0.834 22.3261 17.2215 44.1637
583 195 2 0.417 1.14371 11.6857 38.9848
584 195 2 0.417 0.329087 11.0476 40.0762
585 195 5 -0.834 24.1868 11.4656 39.2306
586 196 2 0.417 7.89529 13.7904 95.291
587 196 2 0.417 6.80402 14.4111 94.434
588 196 5 -0.834 7.57824 14.6589 95.0243
589 197 2 0.417 17.3199 18.9401 49.6688
590 197 2 0.417 16.9979 18.1964 50.9299
591 197 5 -0.834 17.193 18.0236 50.004
592 198 2 0.417 2.51677 2.31016 60.2979
593 198 2 0.417 2.9714 1.44495 61.4366
594 198 5 -0.834 3.33387 2.12722 60.7735
595 199 2 0.417 12.5419 24.2538 66.725
596 199 2 0.417 11.2073 23.6529 67.1335
597 199 5 -0.834 11.7837 23.7708 66.3022
598 200 2 0.417 7.75007 18.4012 48.4198
599 200 2 0.417 7.66587 16.9673 48.463
600 200 5 -0.834 7.80606 17.6259 47.785
601 201 2 0.417 1.88284 18.9476 36.8609
602 201 2 0.417 0.863157 19.7538 37.6894
603 201 5 -0.834 1.23364 19.6866 36.7749
604 202 2 0.417 17.0092 2.59035 35.9404
605 202 2 0.417 17.1472 3.47965 37.0438
606 202 5 -0.834 17.3681 2.54622 36.874
607 203 2 0.417 15.5108 15.796 91.0851
608 203 2 0.417 14.6309 14.6369 90.98
609 203 5 -0.834 15.1958 15.0975 91.6759
610 204 2 0.417 21.707 16.8601 68.6668
611 204 2 0.417 21.0741 15.5153 68.8911
612 204 5 -0.834 21.1635 16.2151 68.1931
613 205 2 0.417 11.5282 1.04194 65.071
614 205 2 0.417 11.1967 1.43228 63.7013
615 205 5 -0.834 11.2176 1.81876 64.5709
616 206 2 0.417 18.6873 19.9952 1.56768
617 206 2 0.417 17.9916 19.1105 0.589691
618 206 5 -0.834 18.8734 19.2707 0.996404
619 207 2 0.417 18.1748 20.5856 67.813
620 207 2 0.417 17.4347 21.9935 67.6529
621 207 5 -0.834 17.3071 21.017 67.8311
622 208 2 0.417 15.0103 3.39222 78.49
623 208 2 0.417 14.159 2.97521 79.6317
624 208 5 -0.834 14.1359 2.98768 78.6205
625 209 2 0.417 20.895 18.93 47.7554
626 209 2 0.417 21.6048 19.0949 49.0353
627 209 5 -0.834 21.8123 18.8983 48.0898
628 210 2 0.417 22.2279 23.2393 77.6172
629 210 2 0.417 21.0714 22.3266 77.8191
630 210 5 -0.834 21.9569 22.2919 77.4728
631 211 2 0.417 18.328 0.342487 11.888
632 211 2 0.417 17.2627 1.42083 11.4886
633 211 5 -0.834 17.9674 1.20037 12.1672
634 212 2 0.417 15.9419 10.5611 35.3935
635 212 2 0.417 16.6384 9.34019 34.6228
636 212 5 -0.834 15.7815 9.74979 34.8281
637 213 2 0.417 10.2248 19.496 83.9452
638 213 2 0.417 9.43641 20.7024 84.061
639 213 5 -0.834 9.30436 19.8103 83.8122
640 214 2 0.417 21.3077 4.86694 79.9283
641 214 2 0.417 20.0788 5.15821 79.4103
642 214 5 -0.834 20.9621 5.17141 79.0946
643 215 2 0.417 12.9316 15.6227 80.9022
644 215 2 0.417 12.5661 16.9784 80.5285
645 215 5 -0.834 13.0517 16.2166 80.1145
646 216 2 0.417 12.804 7.08153 41.4106
647 216 2 0.417 14.0515 7.87561 41.6724
648 216 5 -0.834 13.4769 7.66245 41.001
649 217 2 0.417 9.90713 23.9375 89.3281
650 217 2 0.417 8.84239 23.533 90.3967
651 217 5 -0.834 9.01287 23.5683 89.4705
652 218 2 0.417 4.44636 10.7622 62.9267
653 218 2 0.417 4.04637 12.049 63.3786
654 218 5 -0.834 4.143 11.5949 62.548
655 219 2 0.417 6.20062 8.90433 79.3394
656 219 2 0.417 7.07212 8.20803 80.3082
657 219 5 -0.834 7.15198 8.75357 79.4771
658 220 2 0.417 8.87177 23.8716 77.4158
659 220 2 0.417 7.83779 1.06727 77.2226
660 220 5 -0.834 8.00028 24.082 77.0902
661 221 2 0.417 16.4158 17.8157 66.2497
662 221 2 0.417 16.2613 19.3551 66.2585
663 221 5 -0.834 16.7911 18.6267 65.8695
664 222 2 0.417 22.2459 6.81102 88.7481
665 222 2 0.417 21.2164 5.80893 88.5104
666 222 5 -0.834 21.477 6.67494 88.2135
667 223 2 0.417 22.7926 23.1711 66.4015
668 223 2 0.417 21.7327 22.0564 66.6086
669 223 5 -0.834 22.0453 22.6675 65.9641
670 224 2 0.417 8.36913 4.81574 90.6957
671 224 2 0.417 7.90519 6.18494 90.7369
672 224 5 -0.834 7.97045 5.44718 90.1204
673 225 2 0.417 6.08138 5.73323 53.1913
674 225 2 0.417 4.82014 4.9438 53.0426
675 225 5 -0.834 5.75025 4.90669 52.7649
676 226 2 0.417 1.59183 13.7614 95.5068
677 226 2 0.417 0.583407 14.7706 94.976
678 226 5 -0.834 1.18485 14.5848 95.763
679 227 2 0.417 11.052 8.86159 75.4474
680 227 2 0.417 9.91151 9.32357 76.1839
681 227 5 -0.834 10.2216 9.27307 75.2457
682 228 2 0.417 18.0895 20.9925 62.6196
683 228 2 0.417 17.3747 21.4632 63.9067
684 228 5 -0.834 17.1724 21.1789 62.9768
685 229 2 0.417 1.84795 10.1884 52.1488
686 229 2 0.417 2.38155 9.01073 52.856
687 229 5 -0.834 2.55817 9.54786 52.057
688 230 2 0.417 3.00893 23.5019 63.032
689 230 2 0.417 3.40573 22.2402 63.7007
690 230 5 -0.834 3.72817 22.8145 63.0556
691 231 2 0.417 8.46255 21.9746 42.7942
692 231 2 0.417 8.1349 20.5369 42.2964
693 231 5 -0.834 7.83581 21.4951 42.1966
694 232 2 0.417 8.872 16.1988 85.8628
695 232 2 0.417 10.0857 15.8434 86.5898
696 232 5 -0.834 9.59762 15.6416 85.8127
697 233 2 0.417 8.93756 17.3455 56.9653
698 233 2 0.417 9.52303 18.5079 56.3708
699 233 5 -0.834 9.46121 17.5797 56.1659
700 234 2 0.417 16.9051 23.1746 92.4962
701 234 2 0.417 15.5726 22.9986 93.016
702 234 5 -0.834 16.1525 23.7311 92.7611
703 235 2 0.417 19.9244 9.14204 61.5962
704 235 2 0.417 20.1019 7.94985 62.2725
705 235 5 -0.834 20.5433 8.45541 61.6079
706 236 2 0.417 2.86279 22.3664 59.3488
707 236 2 0.417 3.69873 23.6193 59.3677
708 236 5 -0.834 2.83554 23.3402 59.1811
709 237 2 0.417 6.72014 17.1481 11.7225
710 237 2 0.417 6.20422 16.3887 10.5748
711 237 5 -0.834 6.27132 16.2982 11.5193
712 238 2 0.417 21.8065 4.49155 77.5487
713 238 2 0.417 22.597 5.46667 76.7188
714 238 5 -0.834 22.1189 4.56588 76.5995
715 239 2 0.417 10.5769 7.81109 46.0505
716 239 2 0.417 11.2436 8.89537 46.76
717 239 5 -0.834 11.0613 8.60418 45.8175
718 240 2 0.417 19.9293 21.733 79.6057
719 240 2 0.417 18.6192 22.2985 79.3119
720 240 5 -0.834 19.4885 22.1548 78.883
721 241 2 0.417 12.3469 7.71656 39.4209
722 241 2 0.417 11.1243 6.84927 39.2255
723 241 5 -0.834 11.5362 7.67106 38.825
724 242 2 0.417 16.0396 11.1003 77.8337
725 242 2 0.417 16.7017 10.217 76.8501
726 242 5 -0.834 16.8625 10.6445 77.7456
727 243 2 0.417 15.4644 5.09443 50.3571
728 243 2 0.417 16.3604 6.38833 50.4845
729 243 5 -0.834 15.7004 5.96137 49.8784
730 244 2 0.417 5.24733 0.588776 77.4074
731 244 2 0.417 4.33498 24.0051 76.3891
732 244 5 -0.834 5.24071 0.393908 76.4361
733 245 2 0.417 15.7491 15.6049 67.4227
734 245 2 0.417 16.9986 16.497 67.4495
735 245 5 -0.834 16.2255 16.2378 66.8611
736 246 2 0.417 7.04037 13.2852 81.319
737 246 2 0.417 6.31578 13.2226 82.7457
738 246 5 -0.834 6.49782 12.7217 81.9552
739 247 2 0.417 11.14 2.66713 11.7626
740 247 2 0.417 12.1485 1.67311 11.367
741 247 5 -0.834 11.9506 2.32485 12.0858
742 248 2 0.417 9.30744 17.5134 32.256
743 248 2 0.417 9.36349 16.3986 31.3536
744 248 5 -0.834 8.88458 16.6619 32.1411
745 249 2 0.417 17.718 12.4418 47.9466
746 249 2 0.417 16.5257 11.8108 48.618
747 249 5 -0.834 16.7516 12.3258 47.8224
748 250 2 0.417 1.14968 6.11524 55.9604
749 250 2 0.417 23.8992 6.40126 56.5387
750 250 5 -0.834 0.340932 6.58458 55.6888
751 251 2 0.417 6.34937 21.2351 41.5906
752 251 2 0.417 5.95802 21.5561 40.1302
753 251 5 -0.834 5.56663 21.146 40.9965