ITEM: TIMESTEP
1000000
ITEM: NUMBER OF ATOMS
4761
ITEM: BOX BOUNDS pp pp pp
0.0000000000000000e+00 2.4433001000000001e+01
0.0000000000000000e+00 2.4433001000000001e+01
0.0000000000000000e+00 8.6882897779454566e+01
ITEM: ATOMS id mol type q x y z 
1 1 1 -0.834 6.03299 8.87284 4.412 
2 1 1 -0.834 16.6652 9.4964 74.6249 
3 1 1 -0.834 7.43271 21.8971 64.2669 
4 1 1 -0.834 20.2466 17.7317 43.4489 
5 1 1 -0.834 14.5462 18.2164 79.9753 
6 1 1 -0.834 0.539902 19.0186 52.2819 
7 1 1 -0.834 17.2232 2.39522 47.0155 
8 1 1 -0.834 22.5293 3.35492 8.72404 
9 1 1 -0.834 9.98542 8.98012 85.6145 
10 1 1 -0.834 21.9475 23.6271 54.2794 
11 1 1 -0.834 8.53073 8.97714 66.9364 
12 1 1 -0.834 18.0859 5.59941 47.3616 
13 1 1 -0.834 3.98607 6.76449 52.3886 
14 1 1 -0.834 18.4362 11.1199 76.0924 
15 1 1 -0.834 6.78374 5.62169 52.2536 
16 1 1 -0.834 19.771 15.0842 59.1068 
17 1 1 -0.834 16.5544 6.38491 17.3523 
18 1 1 -0.834 8.22299 1.42468 70.6099 
19 1 1 -0.834 14.5537 10.9789 8.64483 
20 1 1 -0.834 22.1038 2.5899 57.7806 
21 1 1 -0.834 22.7317 21.2671 71.1164 
22 1 1 -0.834 7.53357 3.7665 63.6616 
23 1 1 -0.834 21.5029 22.0821 59.5558 
24 1 1 -0.834 0.262073 20.0779 74.0504 
25 1 1 -0.834 22.7123 12.7355 67.2213 
26 1 1 -0.834 17.2428 2.14953 85.0145 
27 1 1 -0.834 1.37193 16.8627 56.4651 
28 1 1 -0.834 8.92578 22.1246 14.5127 
29 1 1 -0.834 24.0835 2.844 63.5924 
30 1 1 -0.834 5.07367 19.8848 68.6901 
31 1 1 -0.834 23.2284 0.959803 7.13185 
32 1 1 -0.834 9.02296 6.83912 30.79 
33 1 1 -0.834 16.5542 23.2003 43.6451 
34 1 1 -0.834 3.204 7.77778 55.8605 
35 1 1 -0.834 19.5183 2.72614 56.8482 
36 1 1 -0.834 21.0572 4.32364 67.3203 
37 1 1 -0.834 10.5428 18.7698 45.9588 
38 1 1 -0.834 11.3562 4.12467 82.3688 
39 1 1 -0.834 17.8389 22.867 52.1279 
40 1 1 -0.834 5.08891 0.461936 57.346 
41 1 1 -0.834 13.9748 19.8151 74.3903 
42 1 1 -0.834 16.9815 19.8014 51.4158 
43 1 1 -0.834 15.0371 22.7701 62.8352 
44 1 1 -0.834 23.053 0.104055 78.9293 
45 1 1 -0.834 7.54531 10.8991 70.2959 
46 1 1 -0.834 4.1685 4.74448 62.9823 
47 1 1 -0.834 2.36903 3.17601 33.0658 
48 1 1 -0.834 14.1993 19.197 59.7679 
49 1 1 -0.834 2.2612 2.32297 62.9426 
50 1 1 -0.834 23.357 13.7887 69.9372 
51 1 1 -0.834 0.572611 18.0599 49.7651 
52 1 1 -0.834 4.60628 5.79387 73.0638 
53 1 1 -0.834 12.2805 5.96946 75.9833 
54 1 1 -0.834 0.0362097 23.5516 1.7997 
55 1 1 -0.834 19.4329 17.5528 71.0115 
56 1 1 -0.834 11.8193 6.0245 57.3032 
57 1 1 -0.834 16.9271 18.2177 61.484 
58 1 1 -0.834 7.17933 14.4917 81.5644 
59 1 1 -0.834 6.76461 8.12813 0.714389 
60 1 1 -0.834 24.3604 2.03205 54.442 
61 1 1 -0.834 22.9198 2.32931 51.7944 
62 1 1 -0.834 2.48676 6.50544 49.7124 
63 1 1 -0.834 13.303 2.46932 18.5205 
64 1 1 -0.834 16.4298 13.3655 66.9345 
65 1 1 -0.834 7.00797 20.1659 14.097 
66 1 1 -0.834 15.8812 14.0022 11.2131 
67 1 1 -0.834 11.8047 13.2423 67.039 
68 1 1 -0.834 9.07726 14.084 27.5362 
69 1 1 -0.834 18.1018 22.5789 85.5643 
70 1 1 -0.834 23.5937 22.1885 51.7534 
71 1 1 -0.834 21.8929 10.4672 66.0623 
72 1 1 -0.834 13.9547 18.3621 62.3301 
73 1 1 -0.834 4.73669 23.1389 36.1627 
74 1 1 -0.834 6.55207 9.77741 42.9965 
75 1 1 -0.834 0.887444 7.28691 58.472 
76 1 1 -0.834 15.5086 5.43592 85.2499 
77 1 1 -0.834 12.1268 7.35469 27.2689 
78 1 1 -0.834 13.2751 3.64238 45.5309 
79 1 1 -0.834 8.80402 20.8025 34.947 
80 1 1 -0.834 0.258815 5.88672 38.5508 
81 1 1 -0.834 8.7171 6.63152 60.3684 
82 1 1 -0.834 3.09281 2.52 59.957 
83 1 1 -0.834 3.90537 12.6465 25.4252 
84 1 1 -0.834 2.37648 21.1344 52.9116 
85 1 1 -0.834 5.2333 2.32798 62.5215 
86 1 1 -0.834 22.2784 10.5374 39.4709 
87 1 1 -0.834 8.76493 1.29911 78.1865 
88 1 1 -0.834 22.13 3.625 41.2711 
89 1 1 -0.834 16.8659 20.9852 61.7968 
90 1 1 -0.834 21.9156 20.4719 66.2713 
91 1 1 -0.834 16.823 17.3435 69.632 
92 1 1 -0.834 15.9902 2.90378 66.5006 
93 1 1 -0.834 18.0768 0.050236 80.257 
94 1 1 -0.834 9.03222 11.957 63.4447 
95 1 1 -0.834 19.9822 0.363747 73.1991 
96 1 1 -0.834 16.8558 13.8074 72.9725 
97 1 1 -0.834 23.4396 15.5286 81.1901 
98 1 1 -0.834 1.03806 4.7249 68.0585 
99 1 1 -0.834 23.0063 0.539159 65.0697 
100 1 1 -0.834 4.39942 13.3002 74.3851 
101 1 1 -0.834 13.6497 14.8875 54.5239 
102 1 1 -0.834 15.0947 12.5404 54.4473 
103 1 1 -0.834 9.52206 2.08562 64.4696 
104 1 1 -0.834 9.76972 9.78939 26.7129 
105 1 1 -0.834 10.6052 24.3913 15.1986 
106 1 1 -0.834 0.655882 17.0689 20.2656 
107 1 1 -0.834 3.84783 10.1974 43.535 
108 1 1 -0.834 16.7756 24.1855 22.8801 
109 1 1 -0.834 0.845913 13.0743 57.9357 
110 1 1 -0.834 5.10869 15.3197 18.5156 
111 1 1 -0.834 22.1203 5.42423 61.3573 
112 1 1 -0.834 7.65827 7.11606 56.3887 
113 1 1 -0.834 9.37073 17.2873 15.1154 
114 1 1 -0.834 21.9325 6.30878 41.4018 
115 1 1 -0.834 24.0791 12.1801 20.3642 
116 1 1 -0.834 16.7739 11.737 37.1834 
117 1 1 -0.834 6.08087 17.3673 75.6621 
118 1 1 -0.834 21.6976 16.5092 78.0483 
119 1 1 -0.834 9.16239 4.81484 50.9733 
120 1 1 -0.834 19.6787 11.502 40.4289 
121 1 1 -0.834 1.39924 21.509 50.2208 
122 1 1 -0.834 0.190004 19.9527 85.8102 
123 1 1 -0.834 6.14429 23.7878 14.2622 
124 1 1 -0.834 3.01863 8.26074 63.438 
125 1 1 -0.834 13.9251 6.8728 60.2562 
126 1 1 -0.834 4.3555 9.75517 65.3225 
127 1 1 -0.834 20.1681 9.3176 61.6662 
128 1 1 -0.834 10.8641 5.91576 4.00684 
129 1 1 -0.834 4.10816 18.5232 65.9219 
130 1 1 -0.834 13.5208 10.0405 75.0032 
131 1 1 -0.834 7.27252 19.9241 78.5014 
132 1 1 -0.834 0.837859 8.66818 48.8538 
133 1 1 -0.834 0.630249 11.515 69.3404 
134 1 1 -0.834 2.78753 8.11825 8.63953 
135 1 1 -0.834 24.0947 8.21369 66.8807 
136 1 1 -0.834 7.38395 10.1668 85.9431 
137 1 1 -0.834 22.9436 9.39222 11.4341 
138 1 1 -0.834 11.8581 0.694283 63.9424 
139 1 1 -0.834 7.51844 10.7418 47.5079 
140 1 1 -0.834 13.3073 13.8047 34.7885 
141 1 1 -0.834 15.3418 5.92348 78.8142 
142 1 1 -0.834 7.29184 17.1638 18.1337 
143 1 1 -0.834 10.985 2.63919 55.2192 
144 1 1 -0.834 9.87019 18.9915 73.6829 
145 1 1 -0.834 7.53499 22.0602 37.8281 
146 1 1 -0.834 9.83519 20.7441 42.3496 
147 1 1 -0.834 9.44199 20.9249 19.386 
148 1 1 -0.834 16.0045 23.4591 20.1425 
149 1 1 -0.834 20.3018 3.54244 60.8226 
150 1 1 -0.834 15.6016 15.9723 66.4798 
151 1 1 -0.834 18.645 22.7018 45.3401 
152 1 1 -0.834 14.7899 7.31141 50.6798 
153 1 1 -0.834 10.8353 12.5661 48.6116 
154 1 1 -0.834 12.3407 11.137 6.58745 
155 1 1 -0.834 6.59995 18.3042 59.4579 
156 1 1 -0.834 13.1945 13.8945 9.17679 
157 1 1 -0.834 15.2787 13.8286 62.0362 
158 1 1 -0.834 4.5447 4.94351 65.9681 
159 1 1 -0.834 11.6909 16.6185 61.043 
160 1 1 -0.834 4.37691 16.6924 49.6239 
161 1 1 -0.834 2.55494 21.1206 46.9799 
162 1 1 -0.834 20.1026 9.77305 37.4237 
163 1 1 -0.834 4.48751 12.857 66.9825 
164 1 1 -0.834 15.4223 9.50115 42.6075 
165 1 1 -0.834 2.94494 5.8615 31.6354 
166 1 1 -0.834 11.6462 6.70898 78.8342 
167 1 1 -0.834 1.66049 10.5873 76.3124 
168 1 1 -0.834 16.4489 20.9818 59.0299 
169 1 1 -0.834 0.951007 23.2823 70.6847 
170 1 1 -0.834 5.97359 22.3209 53.8884 
171 1 1 -0.834 9.0775 19.8776 16.0718 
172 1 1 -0.834 1.80525 12.2209 43.5105 
173 1 1 -0.834 1.35843 15.6786 58.9808 
174 1 1 -0.834 5.97674 24.4069 47.0727 
175 1 1 -0.834 23.0166 10.7561 36.7954 
176 1 1 -0.834 10.9895 15.8658 45.7436 
177 1 1 -0.834 6.55064 6.45076 25.2713 
178 1 1 -0.834 14.9166 6.02768 23.8225 
179 1 1 -0.834 5.72034 14.7464 76.5759 
180 1 1 -0.834 21.8272 22.8962 27.3588 
181 1 1 -0.834 16.0594 12.6472 57.6973 
182 1 1 -0.834 13.4887 3.48618 83.8754 
183 1 1 -0.834 5.84093 12.4466 80.1784 
184 1 1 -0.834 1.67322 14.5416 85.4729 
185 1 1 -0.834 13.9486 4.03477 50.4151 
186 1 1 -0.834 7.842 14.6188 46.1799 
187 1 1 -0.834 16.9611 6.44977 53.2373 
188 1 1 -0.834 11.2792 18.1093 52.1727 
189 1 1 -0.834 20.6936 15.3449 46.59 
190 1 1 -0.834 16.0363 5.61506 66.2717 
191 1 1 -0.834 2.57498 14.693 48.757 
192 1 1 -0.834 3.69525 21.4001 74.1051 
193 1 1 -0.834 14.7018 19.9389 33.8662 
194 1 1 -0.834 2.75274 21.0214 69.797 
195 1 1 -0.834 16.7625 7.59891 45.9936 
196 1 1 -0.834 24.2877 17.9266 26.5341 
197 1 1 -0.834 18.2742 8.17721 12.7941 
198 1 1 -0.834 7.95307 13.5941 53.8693 
199 1 1 -0.834 6.8132 24.2452 79.4051 
200 1 1 -0.834 9.43439 21.5272 82.3626 
201 1 1 -0.834 0.0773051 2.2407 69.6045 
202 1 1 -0.834 8.97788 7.79251 47.2017 
203 1 1 -0.834 3.70702 2.70721 57.2885 
204 1 1 -0.834 3.22723 17.9918 18.4532 
205 1 1 -0.834 12.0102 10.3777 78.5983 
206 1 1 -0.834 5.4523 4.48022 45.5537 
207 1 1 -0.834 1.73305 9.48906 14.7769 
208 1 1 -0.834 20.1225 10.0714 56.6713 
209 1 1 -0.834 0.67451 13.6691 41.6706 
210 1 1 -0.834 7.7417 24.3563 53.8331 
211 1 1 -0.834 21.4825 12.2359 12.8107 
212 1 1 -0.834 6.83281 21.6901 80.8507 
213 1 1 -0.834 19.6115 1.383 0.137663 
214 1 1 -0.834 5.18213 7.81134 47.7557 
215 1 1 -0.834 16.1788 4.26854 22.1893 
216 1 1 -0.834 3.63532 2.21466 52.8751 
217 1 1 -0.834 3.84056 13.191 78.76 
218 1 1 -0.834 17.1944 21.2996 3.48707 
219 1 1 -0.834 9.95632 6.64818 42.5402 
220 1 1 -0.834 24.4161 12.8544 79.8484 
221 1 1 -0.834 13.9556 11.9831 73.2407 
222 1 1 -0.834 9.17594 6.59349 0.04143 
223 1 1 -0.834 11.8133 22.6016 64.8064 
224 1 1 -0.834 5.54184 1.20146 6.27052 
225 1 1 -0.834 11.9929 12.2953 3.14902 
226 1 1 -0.834 8.84215 12.7921 74.0891 
227 1 1 -0.834 24.1111 21.9494 6.74648 
228 1 1 -0.834 0.390808 5.48548 53.5579 
229 1 1 -0.834 2.77637 23.3742 57.3034 
230 1 1 -0.834 8.89177 19.2429 53.5144 
231 1 1 -0.834 14.4962 12.8237 30.3452 
232 1 1 -0.834 13.8938 2.12805 58.6886 
233 1 1 -0.834 14.75 2.5746 69.6315 
234 1 1 -0.834 20.4661 19.0646 78.4278 
235 1 1 -0.834 17.3269 1.30831 42.6001 
236 1 1 -0.834 0.846754 1.85687 29.3168 
237 1 1 -0.834 10.7032 4.30902 43.6338 
238 1 1 -0.834 4.92708 14.8069 23.0245 
239 1 1 -0.834 24.1656 7.73242 40.3365 
240 1 1 -0.834 2.11528 8.81218 41.655 
241 1 1 -0.834 24.0034 9.51409 42.679 
242 1 1 -0.834 20.8457 13.7986 61.2117 
243 1 1 -0.834 11.7922 9.59296 52.2118 
244 1 1 -0.834 14.0978 19.3722 11.6128 
245 1 1 -0.834 6.61455 14.7024 49.7964 
246 1 1 -0.834 3.64608 22.6643 61.4843 
247 1 1 -0.834 12.3334 1.21249 76.2766 
248 1 1 -0.834 10.396 1.36788 44.251 
249 1 1 -0.834 22.2231 15.1339 54.3765 
250 1 1 -0.834 8.57149 9.3364 51.7456 
251 1 1 -0.834 9.97811 0.302775 68.7463 
252 1 1 -0.834 22.9216 22.6343 86.3469 
253 1 1 -0.834 2.75083 22.8795 64.1361 
254 1 1 -0.834 8.52562 13.6728 61.494 
255 1 1 -0.834 8.51298 17.9637 43.6789 
256 1 1 -0.834 19.8555 10.3514 78.5254 
257 1 1 -0.834 7.61508 19.2274 56.1549 
258 1 1 -0.834 17.0749 12.2862 34.1411 
259 1 1 -0.834 0.122849 3.96503 76.1813 
260 1 1 -0.834 0.467444 22.2887 78.3981 
261 1 1 -0.834 16.7132 2.01121 52.7893 
262 1 1 -0.834 21.084 8.21729 63.9887 
263 1 1 -0.834 24.0231 11.3277 14.5181 
264 1 1 -0.834 19.7032 0.310691 46.7072 
265 1 1 -0.834 13.0734 5.03938 73.3674 
266 1 1 -0.834 15.0447 8.27098 57.9869 
267 1 1 -0.834 17.7302 16.8639 28.8072 
268 1 1 -0.834 4.05022 14.7038 69.4618 
269 1 1 -0.834 4.70969 21.0851 39.1111 
270 1 1 -0.834 17.6683 8.95352 68.2992 
271 1 1 -0.834 6.0735 17.1435 44.9093 
272 1 1 -0.834 2.40117 20.826 55.9836 
273 1 1 -0.834 21.7397 3.40264 54.1582 
274 1 1 -0.834 19.5012 24.3903 28.0867 
275 1 1 -0.834 20.5965 13.4886 52.851 
276 1 1 -0.834 0.452767 1.62306 9.47007 
277 1 1 -0.834 21.6499 9.27603 34.8725 
278 1 1 -0.834 24.0338 17.7512 2.22177 
279 1 1 -0.834 0.305169 21.1761 67.0751 
280 1 1 -0.834 4.97974 10.4142 23.8341 
281 1 1 -0.834 24.053 12.6297 75.4726 
282 1 1 -0.834 5.52576 13.7701 52.2702 
283 1 1 -0.834 11.6688 0.680602 79.3668 
284 1 1 -0.834 5.20981 17.2772 41.2936 
285 1 1 -0.834 12.093 18.254 37.8545 
286 1 1 -0.834 2.68305 23.2182 45.3303 
287 1 1 -0.834 9.70461 10.0042 48.9628 
288 1 1 -0.834 11.772 20.6432 39.2177 
289 1 1 -0.834 2.27704 15.719 22.7902 
290 1 1 -0.834 21.8766 22.9091 45.177 
291 1 1 -0.834 5.94438 12.4918 19.2355 
292 1 1 -0.834 3.57243 15.4812 72.6697 
293 1 1 -0.834 6.56005 11.2472 25.7075 
294 1 1 -0.834 17.6312 10.3279 61.3069 
295 1 1 -0.834 3.88093 17.1096 46.7713 
296 1 1 -0.834 10.4754 4.55947 63.8525 
297 1 1 -0.834 17.6385 22.8622 72.9134 
298 1 1 -0.834 13.8206 17.6837 50.3723 
299 1 1 -0.834 23.2099 17.3761 73.4167 
300 1 1 -0.834 17.3818 2.88716 69.4761 
301 1 1 -0.834 22.7297 1.39183 43.4161 
302 1 1 -0.834 18.9184 19.768 60.3444 
303 1 1 -0.834 7.46753 2.68071 54.8677 
304 1 1 -0.834 19.5356 15.8985 34.0621 
305 1 1 -0.834 11.3086 20.4809 50.6531 
306 1 1 -0.834 13.5737 10.5491 48.0482 
307 1 1 -0.834 15.707 20.1967 9.40414 
308 1 1 -0.834 1.89625 4.10637 51.6555 
309 1 1 -0.834 5.2578 8.40626 68.0179 
310 1 1 -0.834 1.8567 6.11194 62.2653 
311 1 1 -0.834 10.4697 13.7733 30.0797 
312 1 1 -0.834 1.64502 13.7997 17.3055 
313 1 1 -0.834 17.6343 8.75892 79.6052 
314 1 1 -0.834 12.7399 0.799457 40.8154 
315 1 1 -0.834 20.0094 5.61277 51.425 
316 1 1 -0.834 18.2737 21.0758 56.8853 
317 1 1 -0.834 18.5893 20.4951 73.9109 
318 1 1 -0.834 11.0926 17.1787 67.2952 
319 1 1 -0.834 17.8675 2.16846 64.8966 
320 1 1 -0.834 7.36533 5.57931 66.2919 
321 1 1 -0.834 7.50758 1.41262 35.5744 
322 1 1 -0.834 22.9597 18.0239 43.1588 
323 1 1 -0.834 19.0192 21.9209 42.1781 
324 1 1 -0.834 1.26611 6.10485 64.8596 
325 1 1 -0.834 6.76374 21.8328 67.7457 
326 1 1 -0.834 18.4567 15.0608 11.8937 
327 1 1 -0.834 10.782 18.553 64.337 
328 1 1 -0.834 3.16646 15.78 16.3233 
329 1 1 -0.834 5.3762 24.252 33.477 
330 1 1 -0.834 20.29 4.66187 45.7 
331 1 1 -0.834 12.9175 14.4533 49.7161 
332 1 1 -0.834 3.48264 15.6528 52.0056 
333 1 1 -0.834 15.0038 19.1111 57.0339 
334 1 1 -0.834 19.213 21.4122 70.6854 
335 1 1 -0.834 3.66361 12.6634 62.2055 
336 1 1 -0.834 15.4095 15.0521 28.7176 
337 1 1 -0.834 16.5226 19.9227 54.8263 
338 1 1 -0.834 4.7046 20.0497 71.6583 
339 1 1 -0.834 6.87448 23.1253 17.6873 
340 1 1 -0.834 19.8389 1.12915 25.4393 
341 1 1 -0.834 2.25679 13.7698 80.997 
342 1 1 -0.834 24.1674 14.0738 22.3759 
343 1 1 -0.834 14.9021 17.5412 53.0589 
344 1 1 -0.834 0.529887 23.1255 75.068 
345 1 1 -0.834 2.39485 17.5625 53.9 
346 1 1 -0.834 14.5219 17.1147 33.3937 
347 1 1 -0.834 0.935995 15.0714 51.3198 
348 1 1 -0.834 15.8018 4.82351 45.7445 
349 1 1 -0.834 4.45327 1.24789 64.8014 
350 1 1 -0.834 10.7761 6.7708 45.2429 
351 1 1 -0.834 16.6049 12.9745 52.0102 
352 1 1 -0.834 20.1809 7.79964 50.0805 
353 1 1 -0.834 2.05499 0.600111 67.8968 
354 1 1 -0.834 23.0281 22.4942 48.9409 
355 1 1 -0.834 10.4486 12.8782 43.5417 
356 1 1 -0.834 7.00988 11.3158 2.57862 
357 1 1 -0.834 7.39338 4.02906 10.1681 
358 1 1 -0.834 20.7732 1.59251 66.3243 
359 1 1 -0.834 9.3702 13.9825 2.60051 
360 1 1 -0.834 7.81393 0.444567 38.2463 
361 1 1 -0.834 9.4925 24.1969 41.926 
362 1 1 -0.834 19.2684 2.67693 81.5997 
363 1 1 -0.834 19.2614 20.2747 24.4748 
364 1 1 -0.834 13.7243 1.43332 54.4842 
365 1 1 -0.834 1.16335 8.13794 52.8013 
366 1 1 -0.834 21.5443 5.10997 79.8657 
367 1 1 -0.834 17.706 4.04879 50.6245 
368 1 1 -0.834 23.4859 13.3045 17.0348 
369 1 1 -0.834 10.3863 3.12166 75.2114 
370 1 1 -0.834 24.3369 20.3607 47.978 
371 1 1 -0.834 17.7799 8.96069 41.5646 
372 1 1 -0.834 1.56885 20.5043 60.647 
373 1 1 -0.834 14.1533 6.94568 81.8289 
374 1 1 -0.834 15.6407 1.56084 44.9463 
375 1 1 -0.834 11.292 3.21584 51.0774 
376 1 1 -0.834 18.524 7.47189 19.7425 
377 1 1 -0.834 10.8873 5.6477 22.3138 
378 1 1 -0.834 9.2286 5.03772 57.7259 
379 1 1 -0.834 23.7499 23.4417 68.384 
380 1 1 -0.834 22.2226 21.3731 73.854 
381 1 1 -0.834 24.2369 4.10243 57.0495 
382 1 1 -0.834 23.9908 23.8727 56.1144 
383 1 1 -0.834 17.6694 4.43125 42.1107 
384 1 1 -0.834 3.82662 10.9219 46.2947 
385 1 1 -0.834 9.52679 22.7963 66.2694 
386 1 1 -0.834 3.28192 17.4715 80.2933 
387 1 1 -0.834 12.6076 21.619 60.4403 
388 1 1 -0.834 0.577662 22.2161 43.6774 
389 1 1 -0.834 0.540527 2.5332 49.5135 
390 1 1 -0.834 16.8415 21.3539 27.5156 
391 1 1 -0.834 20.7473 11.3918 49.2233 
392 1 1 -0.834 21.3696 7.09525 46.4715 
393 1 1 -0.834 17.7718 19.7132 78.7427 
394 1 1 -0.834 13.566 10.8674 32.9164 
395 1 1 -0.834 12.4909 23.175 39.1897 
396 1 1 -0.834 20.4414 6.42808 72.4036 
397 1 1 -0.834 2.42775 1.16461 55.3214 
398 1 1 -0.834 0.964893 22.4794 28.1095 
399 1 1 -0.834 18.4493 18.9162 26.7586 
400 1 1 -0.834 13.5648 2.25343 62.056 
401 1 1 -0.834 17.5324 3.11738 17.4072 
402 1 1 -0.834 5.52414 22.279 44.6766 
403 1 1 -0.834 6.87014 12.7174 67.8727 
404 1 1 -0.834 19.0938 0.609236 62.9892 
405 1 1 -0.834 20.4694 14.9663 70.7591 
406 1 1 -0.834 19.9212 2.71124 20.7514 
407 1 1 -0.834 6.64432 7.31901 45.3438 
408 1 1 -0.834 5.67185 7.09644 31.898 
409 1 1 -0.834 5.9502 1.1081 76.0635 
410 1 1 -0.834 14.0831 22.1327 47.5375 
411 1 1 -0.834 0.0740232 18.0542 83.4481 
412 1 1 -0.834 7.98304 3.77482 60.6189 
413 1 1 -0.834 7.85389 8.17667 69.4362 
414 1 1 -0.834 12.1773 9.00718 1.14515 
415 1 1 -0.834 18.6611 1.97087 76.1253 
416 1 1 -0.834 15.2057 6.4448 75.6276 
417 1 1 -0.834 8.80259 2.74754 41.9787 
418 1 1 -0.834 0.563712 20.7144 4.3885 
419 1 1 -0.834 12.9399 7.60174 85.6763 
420 1 1 -0.834 19.3801 1.41998 54.0754 
421 1 1 -0.834 1.46157 18.5332 66.074 
422 1 1 -0.834 0.299066 12.5359 84.0325 
423 1 1 -0.834 10.5264 9.52904 42.164 
424 1 1 -0.834 5.46169 0.727997 49.7056 
425 1 1 -0.834 18.5246 8.89071 17.2237 
426 1 1 -0.834 12.4035 11.3682 54.9325 
427 1 1 -0.834 13.7414 9.8276 64.357 
428 1 1 -0.834 20.4101 8.28746 54.4566 
429 1 1 -0.834 17.1226 19.5483 5.56383 
430 1 1 -0.834 15.7707 4.3351 56.4095 
431 1 1 -0.834 21.8121 11.0016 46.5695 
432 1 1 -0.834 4.18882 23.4715 72.4741 
433 1 1 -0.834 9.72917 9.35128 71.8399 
434 1 1 -0.834 11.7948 3.93845 59.658 
435 1 1 -0.834 13.1324 1.90313 48.816 
436 1 1 -0.834 19.1454 15.6751 56.4593 
437 1 1 -0.834 3.15735 15.1615 40.8048 
438 1 1 -0.834 17.1407 9.03351 54.2388 
439 1 1 -0.834 3.1743 11.267 21.9577 
440 1 1 -0.834 8.12866 12.284 29.3521 
441 1 1 -0.834 24.1518 14.1939 73.2443 
442 1 1 -0.834 15.6276 1.45386 77.0444 
443 1 1 -0.834 6.92646 9.45842 64.3003 
444 1 1 -0.834 3.50908 5.48015 69.3613 
445 1 1 -0.834 8.44171 16.5294 52.2154 
446 1 1 -0.834 20.6436 17.5024 49.3687 
447 1 1 -0.834 3.17182 18.2989 63.3217 
448 1 1 -0.834 21.8001 17.951 64.4453 
449 1 1 -0.834 13.7242 22.7658 18.5946 
450 1 1 -0.834 0.273998 5.74409 78.6866 
451 1 1 -0.834 15.7712 14.3151 69.7201 
452 1 1 -0.834 17.8925 14.5627 62.5755 
453 1 1 -0.834 19.1868 18.034 52.3859 
454 1 1 -0.834 9.10439 11.9341 0.893049 
455 1 1 -0.834 1.60976 2.28606 12.1406 
456 1 1 -0.834 4.89141 10.5239 75.4236 
457 1 1 -0.834 1.3766 20.2969 26.4744 
458 1 1 -0.834 22.3015 20.2934 57.7263 
459 1 1 -0.834 1.58451 7.0169 13.0838 
460 1 1 -0.834 16.4859 10.1562 71.9216 
461 1 1 -0.834 4.59426 19.8112 45.4064 
462 1 1 -0.834 11.8019 12.3845 51.7331 
463 1 1 -0.834 19.9327 14.6528 8.13542 
464 1 1 -0.834 23.7573 20.8052 30.1392 
465 1 1 -0.834 20.7997 7.58513 58.7115 
466 1 1 -0.834 6.72193 17.8145 47.704 
467 1 1 -0.834 21.6841 2.40108 46.2076 
468 1 1 -0.834 5.7422 8.62524 57.1722 
469 1 1 -0.834 4.98932 4.79182 54.3605 
470 1 1 -0.834 0.401801 17.9338 60.5165 
471 1 1 -0.834 7.45891 4.91386 78.33 
472 1 1 -0.834 3.22915 12.226 85.972 
473 1 1 -0.834 21.0539 14.9319 66.9404 
474 1 1 -0.834 0.101669 9.72412 45.2545 
475 1 1 -0.834 23.3819 15.8214 49.4386 
476 1 1 -0.834 0.595556 16.3379 42.8477 
477 1 1 -0.834 22.4516 22.9022 76.4391 
478 1 1 -0.834 23.0448 0.03547 29.6767 
479 1 1 -0.834 9.39461 17.8742 37.0997 
480 1 1 -0.834 15.1251 3.4929 16.1732 
481 1 1 -0.834 4.81032 2.26274 34.7797 
482 1 1 -0.834 9.73777 20.3474 69.3294 
483 1 1 -0.834 1.97118 7.62362 33.7762 
484 1 1 -0.834 0.684425 19.6774 70.9764 
485 1 1 -0.834 12.7803 4.84247 68.3802 
486 1 1 -0.834 2.60974 4.82136 45.019 
487 1 1 -0.834 11.1755 6.10706 61.0177 
488 1 1 -0.834 1.84566 2.49077 46.185 
489 1 1 -0.834 23.7207 20.3288 42.019 
490 1 1 -0.834 6.93591 5.53068 29.831 
491 1 1 -0.834 14.3411 15.001 58.627 
492 1 1 -0.834 11.4361 24.3227 19.5096 
493 1 1 -0.834 9.75428 7.0793 65.5052 
494 1 1 -0.834 15.0192 1.08519 64.2169 
495 1 1 -0.834 23.7309 6.96158 55.8286 
496 1 1 -0.834 13.2945 0.213176 43.5385 
497 1 1 -0.834 11.2528 20.0749 35.7917 
498 1 1 -0.834 15.7623 15.825 31.4407 
499 1 1 -0.834 5.81252 5.04468 33.9752 
500 1 1 -0.834 1.48803 18.6783 22.3258 
501 1 1 -0.834 15.8092 22.2332 65.5079 
502 1 1 -0.834 14.3449 9.15476 45.6852 
503 1 1 -0.834 22.589 3.16506 73.6855 
504 1 1 -0.834 10.8733 10.0847 23.6654 
505 1 1 -0.834 23.1033 0.731035 48.1369 
506 1 1 -0.834 20.9409 0.211495 51.7936 
507 1 1 -0.834 18.2519 11.8097 54.161 
508 1 1 -0.834 9.39447 11.1837 53.695 
509 1 1 -0.834 15.2228 23.4275 75.1346 
510 1 1 -0.834 0.912486 23.6161 53.5659 
511 1 1 -0.834 16.9627 16.0714 75.0558 
512 1 1 -0.834 24.2125 7.85886 80.5619 
513 1 1 -0.834 21.7464 1.00215 75.3522 
514 1 1 -0.834 21.8435 19.162 69.3489 
515 1 1 -0.834 2.42636 4.49853 29.2565 
516 1 1 -0.834 5.4976 2.01377 73.252 
517 1 1 -0.834 3.03891 1.37687 30.9913 
518 1 1 -0.834 14.9974 18.0206 36.7017 
519 1 1 -0.834 13.281 17.8719 69.2906 
520 1 1 -0.834 21.1516 8.40146 19.8819 
521 1 1 -0.834 6.32165 16.8797 62.0399 
522 1 1 -0.834 11.2704 23.3781 45.5153 
523 1 1 -0.834 18.083 5.27118 84.0712 
524 1 1 -0.834 11.7985 11.5116 0.423306 
525 1 1 -0.834 21.4985 11.0048 80.778 
526 1 1 -0.834 3.59685 6.51633 77.7243 
527 1 1 -0.834 5.38981 2.36928 70.4323 
528 1 1 -0.834 9.08818 10.7225 56.5633 
529 1 1 -0.834 10.4921 18.2507 71.1963 
530 1 1 -0.834 11.9078 2.47654 85.9386 
531 1 1 -0.834 19.5879 16.7974 75.724 
532 1 1 -0.834 20.9131 18.5554 0.862064 
533 1 1 -0.834 19.6954 16.8477 5.56699 
534 1 1 -0.834 4.09966 8.38304 73.7249 
535 1 1 -0.834 18.0731 7.5309 66.0965 
536 1 1 -0.834 22.9671 9.40894 50.4521 
537 1 1 -0.834 10.5074 8.48777 54.5961 
538 1 1 -0.834 19.6038 18.8285 66.4141 
539 1 1 -0.834 22.1148 1.14649 71.2354 
540 1 1 -0.834 11.6496 10.3298 62.4423 
541 1 1 -0.834 6.69028 19.7139 74.0416 
542 1 1 -0.834 20.2959 0.725268 77.8434 
543 1 1 -0.834 19.7234 19.4072 31.8472 
544 1 1 -0.834 8.22684 24.3863 51.0052 
545 1 1 -0.834 5.0016 2.57267 11.8787 
546 1 1 -0.834 12.8591 0.337474 21.9155 
547 1 1 -0.834 14.7441 21.0248 42.0629 
548 1 1 -0.834 12.6715 7.63447 24.3182 
549 1 1 -0.834 22.0215 22.7425 2.24654 
550 1 1 -0.834 13.929 24.2676 52.1007 
551 1 1 -0.834 21.85 4.25969 15.5249 
552 1 1 -0.834 22.4523 9.95493 59.999 
553 1 1 -0.834 14.2935 8.41694 78.2596 
554 1 1 -0.834 2.92617 14.9944 26.2714 
555 1 1 -0.834 18.1299 10.217 44.8971 
556 1 1 -0.834 14.3271 4.98357 70.8918 
557 1 1 -0.834 23.9259 12.8437 49.5027 
558 1 1 -0.834 14.2467 0.167776 85.7775 
559 1 1 -0.834 16.153 17.2458 78.1269 
560 1 1 -0.834 4.6488 16.2747 84.6388 
561 1 1 -0.834 21.0114 4.81469 48.9911 
562 1 1 -0.834 16.4387 11.184 11.0306 
563 1 1 -0.834 15.9258 15.5376 51.1421 
564 1 1 -0.834 5.76894 17.4039 23.4515 
565 1 1 -0.834 13.2523 14.7199 46.7627 
566 1 1 -0.834 7.77652 19.284 41.3409 
567 1 1 -0.834 17.4955 2.47516 72.1713 
568 1 1 -0.834 18.1366 22.4378 64.0109 
569 1 1 -0.834 12.3346 16.867 12.5781 
570 1 1 -0.834 16.718 1.38315 0.630093 
571 1 1 -0.834 21.4717 20.252 40.4051 
572 1 1 -0.834 12.1707 19.5452 79.6628 
573 1 1 -0.834 4.82233 7.61877 43.357 
574 1 1 -0.834 19.2086 13.5908 37.6491 
575 1 1 -0.834 18.3192 22.8693 60.7775 
576 1 1 -0.834 17.9542 0.296234 83.1834 
577 1 1 -0.834 6.55167 20.4873 17.6879 
578 1 1 -0.834 18.6221 0.614929 68.1635 
579 1 1 -0.834 15.1527 22.4171 84.1426 
580 1 1 -0.834 13.6604 0.36206 46.7402 
581 1 1 -0.834 4.35477 9.11475 53.8114 
582 1 1 -0.834 4.74335 3.21786 50.4758 
583 1 1 -0.834 7.25059 9.70814 27.8354 
584 1 1 -0.834 13.1861 6.171 20.2732 
585 1 1 -0.834 2.63838 12.3486 19.5176 
586 1 1 -0.834 16.5133 16.5276 59.2176 
587 1 1 -0.834 4.94811 21.8035 56.3823 
588 1 1 -0.834 23.8417 17.4082 67.5542 
589 1 1 -0.834 6.28502 0.0951939 68.4832 
590 1 1 -0.834 12.8515 16.1479 77.4826 
591 1 1 -0.834 24.0105 14.1794 61.8976 
592 1 1 -0.834 7.89492 4.69157 43.6294 
593 1 1 -0.834 4.95699 18.7028 56.7343 
594 1 1 -0.834 5.98954 11.3832 44.9563 
595 1 1 -0.834 12.3387 20.3147 63.144 
596 1 1 -0.834 5.92832 21.1657 61.0337 
597 1 1 -0.834 3.92999 2.77982 67.9631 
598 1 1 -0.834 19.6782 11.6399 73.5223 
599 1 1 -0.834 22.6617 17.3849 46.0429 
600 1 1 -0.834 1.9516 10.8737 59.4685 
601 1 1 -0.834 17.2626 10.5646 47.5831 
602 1 1 -0.834 17.8966 5.28398 68.2917 
603 1 1 -0.834 6.73126 20.8105 49.3433 
604 1 1 -0.834 2.28017 23.1131 31.3155 
605 1 1 -0.834 8.21129 14.1095 58.7489 
606 1 1 -0.834 22.8563 14.8093 58.5479 
607 1 1 -0.834 22.3183 7.55773 52.4433 
608 1 1 -0.834 8.12733 7.10743 4.74896 
609 1 1 -0.834 8.68702 23.5343 74.2344 
610 1 1 -0.834 3.18197 21.7655 42.5887 
611 1 1 -0.834 17.7534 13.4242 60.0522 
612 1 1 -0.834 0.803016 6.29164 10.4293 
613 1 1 -0.834 20.962 20.368 26.9999 
614 1 1 -0.834 22.8077 9.92382 57.2076 
615 1 1 -0.834 23.3853 14.7422 44.4776 
616 1 1 -0.834 3.07934 4.33297 13.2511 
617 1 1 -0.834 15.6444 20.8071 72.278 
618 1 1 -0.834 10.8609 11.7425 60.3108 
619 1 1 -0.834 10.0604 23.3772 37.9344 
620 1 1 -0.834 6.13919 17.2421 80.0823 
621 1 1 -0.834 17.968 12.6477 78.4421 
622 1 1 -0.834 2.5521 19.1185 75.6236 
623 1 1 -0.834 7.89331 20.0455 11.5121 
624 1 1 -0.834 2.79751 0.186734 74.3717 
625 1 1 -0.834 2.16166 0.412031 51.205 
626 1 1 -0.834 22.5495 12.0189 51.7323 
627 1 1 -0.834 18.9036 18.2726 55.4063 
628 1 1 -0.834 18.5992 16.8106 9.97572 
629 1 1 -0.834 1.76917 16.4311 0.400115 
630 1 1 -0.834 9.15978 13.0629 51.2619 
631 1 1 -0.834 14.9709 21.1313 78.0502 
632 1 1 -0.834 15.4222 3.09587 40.925 
633 1 1 -0.834 18.9084 10.1474 65.6606 
634 1 1 -0.834 14.0473 9.14962 27.0994 
635 1 1 -0.834 8.15599 2.48607 49.8509 
636 1 1 -0.834 15.5042 14.5164 48.2129 
637 1 1 -0.834 7.46475 23.1724 35.1278 
638 1 1 -0.834 20.4693 18.0341 73.4631 
639 1 1 -0.834 13.4722 19.0663 8.2373 
640 1 1 -0.834 14.7816 9.40401 52.8938 
641 1 1 -0.834 8.37455 21.6729 51.404 
642 1 1 -0.834 7.42395 2.92945 57.6762 
643 1 1 -0.834 18.3778 1.53819 60.4917 
644 1 1 -0.834 16.5225 22.7512 54.7108 
645 1 1 -0.834 20.1909 17.5029 29.7633 
646 1 1 -0.834 15.8866 12.5746 45.5253 
647 1 1 -0.834 16.9924 9.66083 15.0208 
648 1 1 -0.834 22.4365 10.3367 18.6798 
649 1 1 -0.834 7.91681 10.0164 73.8563 
650 1 1 -0.834 6.85356 17.8906 66.3757 
651 1 1 -0.834 0.246249 8.96999 64.2482 
652 1 1 -0.834 21.2963 21.6509 5.88856 
653 1 1 -0.834 6.92355 22.3907 42.3727 
654 1 1 -0.834 21.6932 16.5257 3.36412 
655 1 1 -0.834 7.48278 23.6959 60.724 
656 1 1 -0.834 11.2219 23.3435 57.1765 
657 1 1 -0.834 24.1002 10.7276 82.145 
658 1 1 -0.834 10.6455 2.01594 61.292 
659 1 1 -0.834 12.7609 19.3503 44.3691 
660 1 1 -0.834 18.7855 12.9472 50.6152 
661 1 1 -0.834 14.018 8.99265 3.61623 
662 1 1 -0.834 17.644 15.1794 36.099 
663 1 1 -0.834 20.6069 6.79741 14.6689 
664 1 1 -0.834 13.4066 16.8175 64.8716 
665 1 1 -0.834 21 5.87381 55.3421 
666 1 1 -0.834 4.14023 16.0324 56.9261 
667 1 1 -0.834 1.49816 19.4484 43.7106 
668 1 1 -0.834 1.03306 5.80077 35.784 
669 1 1 -0.834 21.6941 13.8172 39.2626 
670 1 1 -0.834 16.89 8.51587 49.4733 
671 1 1 -0.834 8.42487 10.8187 6.83924 
672 1 1 -0.834 11.5259 4.88432 48.665 
673 1 1 -0.834 1.08879 15.8436 78.8303 
674 1 1 -0.834 11.229 5.83866 53.8986 
675 1 1 -0.834 16.203 12.4258 80.3698 
676 1 1 -0.834 4.74261 11.4769 1.03448 
677 1 1 -0.834 16.9471 16.9171 5.8469 
678 1 1 -0.834 5.96499 5.34504 75.2856 
679 1 1 -0.834 21.7491 18.9835 75.9657 
680 1 1 -0.834 9.3292 4.27456 27.522 
681 1 1 -0.834 5.81146 23.5927 39.7143 
682 1 1 -0.834 5.84985 2.37438 80.2383 
683 1 1 -0.834 13.3875 1.72143 66.3747 
684 1 1 -0.834 14.6125 15.3557 5.10108 
685 1 1 -0.834 19.0769 12.0549 43.0427 
686 1 1 -0.834 14.6825 21.5639 44.9049 
687 1 1 -0.834 20.4261 21.8244 52.5725 
688 1 1 -0.834 23.2506 11.8566 41.7531 
689 1 1 -0.834 16.8089 5.9275 70.8701 
690 1 1 -0.834 12.6516 13.774 64.4683 
691 1 1 -0.834 12.7213 10.6684 30.3417 
692 1 1 -0.834 8.89573 3.17583 45.9466 
693 1 1 -0.834 16.7053 13.4445 76.3074 
694 1 1 -0.834 6.92487 0.123404 63.4032 
695 1 1 -0.834 4.60014 1.48384 44.9126 
696 1 1 -0.834 23.4808 20.6046 45.3192 
697 1 1 -0.834 6.06489 5.77575 70.4232 
698 1 1 -0.834 8.03728 7.32363 49.6588 
699 1 1 -0.834 13.7496 23.866 77.745 
700 1 1 -0.834 5.85868 7.03478 79.5068 
701 1 1 -0.834 7.49651 13.7728 84.4854 
702 1 1 -0.834 7.50439 1.91643 8.13737 
703 1 1 -0.834 11.9168 20.3376 48.0459 
704 1 1 -0.834 19.4981 12.7636 10.933 
705 1 1 -0.834 16.0187 7.53949 21.7086 
706 1 1 -0.834 17.6758 2.29571 23.4763 
707 1 1 -0.834 2.19299 4.58958 72.4204 
708 1 1 -0.834 21.4814 19.6977 47.7196 
709 1 1 -0.834 10.1506 18.5093 12.5667 
710 1 1 -0.834 20.5081 9.24724 42.4592 
711 1 1 -0.834 0.0257766 6.06687 43.6672 
712 1 1 -0.834 5.77977 1.68774 31.1834 
713 1 1 -0.834 20.4192 6.69526 69.5667 
714 1 1 -0.834 9.20186 21.6075 45.0001 
715 1 1 -0.834 10.1075 5.7176 70.3031 
716 1 1 -0.834 4.39843 3.80966 77.0795 
717 1 1 -0.834 12.6558 16.7116 6.5347 
718 1 1 -0.834 22.3193 20.0665 3.29037 
719 1 1 -0.834 3.47127 8.29734 59.1057 
720 1 1 -0.834 18.0564 7.3526 74.6604 
721 1 1 -0.834 24.133 1.25729 34.1024 
722 1 1 -0.834 21.8123 8.48827 82.1354 
723 1 1 -0.834 23.8702 23.591 32.0134 
724 1 1 -0.834 11.7825 9.20181 59.6027 
725 1 1 -0.834 8.1216 16.8192 73.9722 
726 1 1 -0.834 6.01084 6.26189 8.72833 
727 1 1 -0.834 11.3201 9.70913 65.7514 
728 1 1 -0.834 10.7039 3.42357 78.8763 
729 1 1 -0.834 23.0672 5.78053 58.8746 
730 1 1 -0.834 20.2859 19.2606 6.42823 
731 1 1 -0.834 3.31768 15.3523 66.3271 
732 1 1 -0.834 9.84356 7.74682 6.84454 
733 1 1 -0.834 12.9221 24.3572 83.0495 
734 1 1 -0.834 19.8711 23.1679 55.8677 
735 1 1 -0.834 1.77844 24.1199 5.59707 
736 1 1 -0.834 0.221682 14.6673 47.2831 
737 1 1 -0.834 4.38757 1.0367 37.4197 
738 1 1 -0.834 21.6714 22.653 42.1671 
739 1 1 -0.834 20.2197 20.3569 44.1242 
740 1 1 -0.834 19.6094 9.50821 52.3492 
741 1 1 -0.834 19.5986 19.9573 63.569 
742 1 1 -0.834 7.16606 12.0503 76.1305 
743 1 1 -0.834 13.0638 3.49559 56.6161 
744 1 1 -0.834 19.5433 5.31969 40.1143 
745 1 1 -0.834 18.9301 5.38383 58.6473 
746 1 1 -0.834 16.6393 18.1014 73.2709 
747 1 1 -0.834 2.3211 10.6883 84.1241 
748 1 1 -0.834 23.4098 21.3053 64.0898 
749 1 1 -0.834 6.11149 12.6654 21.9569 
750 1 1 -0.834 7.49362 13.8633 64.883 