 DBCSR| CPU Multiplication driver                                           XSMM
 DBCSR| Multrec recursion limit                                              512
 DBCSR| Multiplication stack size                                           1000
 DBCSR| Maximum elements for images                                    UNLIMITED
 DBCSR| Multiplicative factor virtual images                                   1
 DBCSR| Use multiplication densification                                       T
 DBCSR| Multiplication size stacks                                             3
 DBCSR| Use memory pool for CPU allocation                                     F
 DBCSR| Number of 3D layers                                               SINGLE
 DBCSR| Use MPI memory allocation                                              F
 DBCSR| Use RMA algorithm                                                      F
 DBCSR| Use Communication thread                                               T
 DBCSR| Communication thread load                                             87
 DBCSR| MPI: My node id                                                        0
 DBCSR| MPI: Number of nodes                                                  24
 DBCSR| OMP: Current number of threads                                         1
 DBCSR| OMP: Max number of threads                                             1
 DBCSR| Split modifier for TAS multiplication algorithm                  1.0E+00


  **** **** ******  **  PROGRAM STARTED AT               2022-09-04 17:48:57.102
 ***** ** ***  *** **   PROGRAM STARTED ON         node1144.palmetto.clemson.edu
 **    ****   ******    PROGRAM STARTED BY                               xiutinc
 ***** **    ** ** **   PROGRAM PROCESS ID                               3875733
  **** **  *******  **  PROGRAM STARTED IN    /scratch1/xiutinc/CP2K-97004.pbs02

 CP2K| version string:                                          CP2K version 9.1
 CP2K| source code revision number:                                  git:d8d7100
 CP2K| cp2kflags: omp libint fftw3 libxc parallel mpi3 scalapack xsmm           
 CP2K| is freely available from                            https://www.cp2k.org/
 CP2K| Program compiled at                          Mon Aug  8 12:17:03 EDT 2022
 CP2K| Program compiled on                         node0352.palmetto.clemson.edu
 CP2K| Program compiled for                           linux-rocky8-ivybridge-gcc
 CP2K| Data directory path    /software/spackages/linux-rocky8-ivybridge/gcc-9.5
 CP2K| Input file name                                             intE07_aq.inp

 GLOBAL| Force Environment number                                              1
 GLOBAL| Basis set file name                                          BASIS_file
 GLOBAL| Potential file name                                     POTENTIALS_file
 GLOBAL| MM Potential file name                                     MM_POTENTIAL
 GLOBAL| Coordinate file name                                    ./intE07_aq.xyz
 GLOBAL| Method name                                                        CP2K
 GLOBAL| Project name                                                  intE07_aq
 GLOBAL| Run type                                                        GEO_OPT
 GLOBAL| FFT library                                                       FFTW3
 GLOBAL| Diagonalization library                                       ScaLAPACK
 GLOBAL| Orthonormality check for eigenvectors                          DISABLED
 GLOBAL| Matrix multiplication library                                 ScaLAPACK
 GLOBAL| All-to-all communication in single precision                          F
 GLOBAL| FFTs using library dependent lengths                                  F
 GLOBAL| Grid backend                                                       AUTO
 GLOBAL| Global print level                                                  LOW
 GLOBAL| MPI I/O enabled                                                       T
 GLOBAL| Total number of message passing processes                            24
 GLOBAL| Number of threads for this process                                    1
 GLOBAL| This output is from process                                           0
 GLOBAL| Stack size for threads created by OpenMP (OMP_STACKSIZE)        default
 GLOBAL| CPU model name                Intel(R) Xeon(R) CPU E5-2680 v3 @ 2.50GHz
 GLOBAL| CPUID                                                              1002
 GLOBAL| Compiled for CPUID                                                 1001

 *** HINT in environment.F:869 :: The compiler target flags (x86_avx) used ***
 *** to build this binary cannot exploit all extensions of this CPU model  ***
 *** (x86_avx2). Consider compiler target flags as part of FCFLAGS and     ***
 *** CFLAGS (ARCH file).                                                   ***


 MEMORY| system memory details [Kb]
 MEMORY|                        rank 0           min           max       average
 MEMORY| MemTotal            131294764     131294764     131294764     131294764
 MEMORY| MemFree             122536692     122536692     122536692     122536692
 MEMORY| Buffers                  3504          3504          3504          3504
 MEMORY| Cached                3172948       3172948       3172948       3172948
 MEMORY| Slab                   696908        696908        696908        696908
 MEMORY| SReclaimable           300816        300816        300816        300816
 MEMORY| MemLikelyFree       126013960     126013960     126013960     126013960


 *******************************************************************************
 *******************************************************************************
 **                                                                           **
 **     #####                         ##              ##                      **
 **    ##   ##            ##          ##              ##                      **
 **   ##     ##                       ##            ######                    **
 **   ##     ##  ##   ##  ##   #####  ##  ##   ####   ##    #####    #####    **
 **   ##     ##  ##   ##  ##  ##      ## ##   ##      ##   ##   ##  ##   ##   **
 **   ##  ## ##  ##   ##  ##  ##      ####     ###    ##   ######   ######    **
 **    ##  ###   ##   ##  ##  ##      ## ##      ##   ##   ##       ##        **
 **     #######   #####   ##   #####  ##  ##  ####    ##    #####   ##        **
 **           ##                                                    ##        **
 **                                                                           **
 **                                                ... make the atoms dance   **
 **                                                                           **
 **            Copyright (C) by CP2K developers group (2000-2021)             **
 **                      J. Chem. Phys. 152, 194103 (2020)                    **
 **                                                                           **
 *******************************************************************************


 TOTAL NUMBERS AND MAXIMUM NUMBERS

  Total number of            - Atomic kinds:                                   5
                             - Atoms:                                        673
                             - Shell sets:                                   673
                             - Shells:                                      3236
                             - Primitive Cartesian functions:               3176
                             - Cartesian basis functions:                   8845
                             - Spherical basis functions:                   8234

  Maximum angular momentum of- Orbital basis functions:                        3
                             - Local part of the GTH pseudopotential:          2
                             - Non-local part of the GTH pseudopotential:      3


 SCF PARAMETERS         Density guess:                                   RESTART
                        --------------------------------------------------------
                        max_scf:                                             500
                        max_scf_history:                                       0
                        max_diis:                                              4
                        --------------------------------------------------------
                        eps_scf:                                        1.00E-06
                        eps_scf_history:                                0.00E+00
                        eps_diis:                                       1.00E-01
                        eps_eigval:                                     1.00E-05
                        --------------------------------------------------------
                        level_shift [a.u.]:                                 0.00
                        --------------------------------------------------------
                        Outer loop SCF in use 
                        No variables optimised in outer loop
                        eps_scf                                         1.00E-06
                        max_scf                                               50
                        No outer loop optimization
                        step_size                                       5.00E-01

 BFGS| Use rational function optimization for step estimation:                NO
 BFGS| Use model Hessian for initial guess:                                  YES
 BFGS| Restart Hessian:                                                       NO
 BFGS| Trust radius:                                                       0.472

 *******************************************************************************
 ***                     STARTING GEOMETRY OPTIMIZATION                      ***
 ***                                   BFGS                                  ***
 *******************************************************************************

 Number of electrons:                                                       3328
 Number of occupied orbitals:                                               1664
 Number of molecular orbitals:                                              1664

 Number of orbital functions:                                               8234
 Number of independent orbital functions:                                   8234

 Extrapolation method: initial_guess

 *** WARNING in qs_initial_guess.F:309 :: User requested to restart the   ***
 *** wavefunction from the file named: intE07_aq-RESTART.wfn. This file   ***
 *** does not exist. Please check the existence of the file or change     ***
 *** properly the value of the keyword WFN_RESTART_FILE_NAME. Calculation ***
 *** continues using ATOMIC GUESS.                                        ***



 SCF WAVEFUNCTION OPTIMIZATION

  ----------------------------------- OT ---------------------------------------
  Minimizer      : CG                  : conjugate gradient
  Preconditioner : FULL_ALL            : diagonalization, state selective
  Precond_solver : DEFAULT
  Line search    : 2PNT                : 2 energies, one gradient
  stepsize       :    0.15000000                  energy_gap     :    0.00100000
  eps_taylor     :   0.10000E-15                  max_taylor     :             4
  ----------------------------------- OT ---------------------------------------

  Step     Update method      Time    Convergence         Total energy    Change
  ------------------------------------------------------------------------------
     1 OT CG       0.15E+00   41.9     0.01685080     -7278.2286507248 -7.28E+03
     2 OT LS       0.59E-01    4.6                    -7124.9721606820
     3 OT CG       0.59E-01   11.9     0.08078235     -7149.8192135345  1.28E+02
     4 OT LS       0.27E-01    6.5                    -6571.1607689782
     5 OT CG       0.27E-01   11.7     0.12851840     -6795.2544212433  3.55E+02
     6 OT LS       0.14E-01    4.6                    -6960.2772939383
     7 OT CG       0.14E-01   11.7     0.06859840     -7079.8634254114 -2.85E+02
     8 OT LS       0.85E-02    4.6                    -7211.9047661059
     9 OT CG       0.85E-02   11.6     0.01756212     -7250.7522224763 -1.71E+02
    10 OT LS       0.22E-01    4.6                    -7275.1852306143
    11 OT CG       0.22E-01   11.6     0.01708690     -7286.1976384877 -3.54E+01
    12 OT LS       0.27E-01    4.6                    -7330.4999990310
    13 OT CG       0.27E-01   11.8     0.01114463     -7335.6338519801 -4.94E+01
    14 OT LS       0.25E-01    4.6                    -7356.9419684235
    15 OT CG       0.25E-01   11.6     0.01178687     -7356.7675889590 -2.11E+01
    16 OT LS       0.20E-01    4.6                    -7376.0867300889
    17 OT CG       0.20E-01   11.7     0.01087670     -7378.1421864872 -2.14E+01
    18 OT LS       0.33E-01    4.6                    -7399.5559588879
    19 OT CG       0.33E-01   11.6     0.01646548     -7399.3154678091 -2.12E+01
    20 OT LS       0.13E-01    4.6                    -7376.2581134216
    21 OT CG       0.13E-01   11.6     0.00889982     -7415.2735385219 -1.60E+01
    22 OT LS       0.18E-01    4.6                    -7424.3699628050
    23 OT CG       0.18E-01   11.7     0.00527754     -7425.2889359221 -1.00E+01
    24 OT LS       0.60E-01    4.6                    -7431.5184228372
    25 OT CG       0.60E-01   11.6     0.00790406     -7434.4432086171 -9.15E+00
    26 OT LS       0.62E-02    4.6                    -7361.6692126155
    27 OT CG       0.62E-02   11.6     0.00853346     -7435.6279353749 -1.18E+00
    28 OT LS       0.13E-01    4.8                    -7440.3881426539
    29 OT CG       0.13E-01   11.6     0.00281523     -7442.5888088698 -6.96E+00
    30 OT LS       0.53E-01    4.6                    -7443.9734177438
    31 OT CG       0.53E-01   11.6     0.00221933     -7446.9499520492 -4.36E+00
    32 OT LS       0.13E+00    4.6                    -7450.1984171405
    33 OT CG       0.13E+00   11.6     0.00385236     -7452.6173943510 -5.67E+00
    34 OT LS       0.29E-01    4.6                    -7411.6363401935
    35 OT CG       0.29E-01   11.7     0.00335357     -7456.2233697881 -3.61E+00
    36 OT LS       0.35E-01    4.6                    -7458.2850738137
    37 OT CG       0.35E-01   11.7     0.00396253     -7458.3334792086 -2.11E+00
    38 OT LS       0.25E-01    4.6                    -7460.5447550088
    39 OT CG       0.25E-01   11.7     0.00236366     -7460.8589591120 -2.53E+00
    40 OT LS       0.98E-01    4.6                    -7462.5823064057
    41 OT CG       0.98E-01   11.6     0.00204040     -7465.4138219657 -4.55E+00
    42 OT LS       0.93E-01    4.6                    -7468.4615455929
    43 OT CG       0.93E-01   11.7     0.00218958     -7468.4719061599 -3.06E+00
    44 OT LS       0.82E-01    4.6                    -7471.1310054877
    45 OT CG       0.82E-01   11.7     0.00221642     -7471.1835678108 -2.71E+00
    46 OT LS       0.83E-01    4.6                    -7473.9747312345
    47 OT CG       0.83E-01   11.7     0.00231592     -7473.9797280944 -2.80E+00
    48 OT LS       0.73E-01    4.6                    -7476.7491514483
    49 OT CG       0.73E-01   11.6     0.00254861     -7476.8879098677 -2.91E+00
    50 OT LS       0.55E-01    4.6                    -7478.9230063495
    51 OT CG       0.55E-01   11.6     0.00214825     -7479.1020439350 -2.21E+00
    52 OT LS       0.56E-01    4.6                    -7480.8883654922
    53 OT CG       0.56E-01   11.6     0.00180787     -7480.8917595547 -1.79E+00
    54 OT LS       0.77E-01    4.6                    -7482.5978362454
    55 OT CG       0.77E-01   11.6     0.00193294     -7482.6860870156 -1.79E+00
    56 OT LS       0.64E-01    4.6                    -7484.1142870903
    57 OT CG       0.64E-01   11.9     0.00176805     -7484.1580491544 -1.47E+00
    58 OT LS       0.62E-01    4.6                    -7485.4990354999
    59 OT CG       0.62E-01   13.0     0.00164894     -7485.4981084543 -1.34E+00
    60 OT LS       0.75E-01    7.2                    -7486.8875209843
    61 OT CG       0.75E-01   11.7     0.00149218     -7486.9107270988 -1.41E+00
    62 OT LS       0.82E-01    4.6                    -7488.0821252900
    63 OT CG       0.82E-01   11.6     0.00168927     -7488.0929560370 -1.18E+00
    64 OT LS       0.77E-01    4.6                    -7489.5966082928
    65 OT CG       0.77E-01   11.6     0.00160508     -7489.5993956690 -1.51E+00
    66 OT LS       0.81E-01    4.6                    -7491.0535756371
    67 OT CG       0.81E-01   11.7     0.00170506     -7491.0516596759 -1.45E+00
    68 OT LS       0.76E-01    4.6                    -7492.4896316983
    69 OT CG       0.76E-01   11.6     0.00161260     -7492.4948545862 -1.44E+00
    70 OT LS       0.66E-01    4.6                    -7493.6526847539
    71 OT CG       0.66E-01   11.6     0.00145950     -7493.6708320923 -1.18E+00
    72 OT LS       0.85E-01    4.8                    -7494.8710604153
    73 OT CG       0.85E-01   11.6     0.00134810     -7494.9216440187 -1.25E+00
    74 OT LS       0.82E-01    4.6                    -7495.9057443189
    75 OT CG       0.82E-01   11.7     0.00142078     -7495.9077553106 -9.86E-01
    76 OT LS       0.76E-01    4.6                    -7496.9413248971
    77 OT CG       0.76E-01   13.6     0.00123941     -7496.9447526265 -1.04E+00
    78 OT LS       0.80E-01    4.7                    -7497.8032622576
    79 OT CG       0.80E-01   11.6     0.00120206     -7497.8057062156 -8.61E-01
    80 OT LS       0.82E-01    4.6                    -7498.6132065298
    81 OT CG       0.82E-01   11.6     0.00118022     -7498.6130356514 -8.07E-01
    82 OT LS       0.82E-01    4.6                    -7499.3791566522
    83 OT CG       0.82E-01   11.6     0.00116207     -7499.3790905453 -7.66E-01
    84 OT LS       0.79E-01    4.6                    -7500.1180149007
    85 OT CG       0.79E-01   11.7     0.00107875     -7500.1184329776 -7.39E-01
    86 OT LS       0.88E-01    4.6                    -7500.8147812840
    87 OT CG       0.88E-01   11.8     0.00108992     -7500.8197074792 -7.01E-01
    88 OT LS       0.84E-01    4.6                    -7501.4896388821
    89 OT CG       0.84E-01   11.7     0.00108962     -7501.4911159660 -6.71E-01
    90 OT LS       0.82E-01    4.6                    -7502.1540479319
    91 OT CG       0.82E-01   11.7     0.00101042     -7502.1542521075 -6.63E-01
    92 OT LS       0.86E-01    4.6                    -7502.7561212610
    93 OT CG       0.86E-01   11.7     0.00099021     -7502.7570034383 -6.03E-01
    94 OT LS       0.84E-01    4.6                    -7503.3145614645
    95 OT CG       0.84E-01   11.6     0.00096963     -7503.3149702905 -5.58E-01
    96 OT LS       0.86E-01    4.6                    -7503.8622926064
    97 OT CG       0.86E-01   11.6     0.00092429     -7503.8627176418 -5.48E-01
    98 OT LS       0.82E-01    4.6                    -7504.3431513368
    99 OT CG       0.82E-01   11.7     0.00086855     -7504.3440956110 -4.81E-01
   100 OT LS       0.90E-01    4.6                    -7504.8055498344
   101 OT CG       0.90E-01   11.8     0.00086700     -7504.8086060441 -4.65E-01
   102 OT LS       0.85E-01    4.6                    -7505.2401914318
   103 OT CG       0.85E-01   11.7     0.00086008     -7505.2417852102 -4.33E-01
   104 OT LS       0.84E-01    4.6                    -7505.6655287951
   105 OT CG       0.84E-01   11.7     0.00081301     -7505.6655313356 -4.24E-01
   106 OT LS       0.84E-01    4.6                    -7506.0477126086
   107 OT CG       0.84E-01   11.6     0.00078489     -7506.0477118698 -3.82E-01
   108 OT LS       0.89E-01    4.6                    -7506.4217050360
   109 OT CG       0.89E-01   11.7     0.00077662     -7506.4225373941 -3.75E-01
   110 OT LS       0.86E-01    4.6                    -7506.7770518882
   111 OT CG       0.86E-01   11.6     0.00077581     -7506.7773691699 -3.55E-01
   112 OT LS       0.82E-01    4.6                    -7507.1143869609
   113 OT CG       0.82E-01   11.6     0.00073392     -7507.1151880960 -3.38E-01
   114 OT LS       0.85E-01    4.6                    -7507.4298362601
   115 OT CG       0.85E-01   11.6     0.00071440     -7507.4302573107 -3.15E-01
   116 OT LS       0.87E-01    4.9                    -7507.7345285381
   117 OT CG       0.87E-01   11.6     0.00070434     -7507.7346146413 -3.04E-01
   118 OT LS       0.86E-01    4.6                    -7508.0250386698
   119 OT CG       0.86E-01   11.6     0.00069402     -7508.0251159213 -2.91E-01
   120 OT LS       0.84E-01    4.6                    -7508.3029599731
   121 OT CG       0.84E-01   11.6     0.00066256     -7508.3030249112 -2.78E-01
   122 OT LS       0.87E-01    4.6                    -7508.5632615160
   123 OT CG       0.87E-01   11.7     0.00064625     -7508.5634236214 -2.60E-01
   124 OT LS       0.88E-01    4.6                    -7508.8146351776
   125 OT CG       0.88E-01   11.6     0.00063735     -7508.8146743937 -2.51E-01
   126 OT LS       0.87E-01    4.6                    -7509.0564541973
   127 OT CG       0.87E-01   11.6     0.00062299     -7509.0564764604 -2.42E-01
   128 OT LS       0.86E-01    4.6                    -7509.2858037526
   129 OT CG       0.86E-01   11.7     0.00060193     -7509.2858162129 -2.29E-01
   130 OT LS       0.87E-01    4.6                    -7509.5026970386
   131 OT CG       0.87E-01   12.3     0.00058722     -7509.5027234561 -2.17E-01
   132 OT LS       0.87E-01    5.3                    -7509.7083555485
   133 OT CG       0.87E-01   12.5     0.00057746     -7509.7083597456 -2.06E-01
   134 OT LS       0.87E-01    4.6                    -7509.9069687050
   135 OT CG       0.87E-01   11.7     0.00056643     -7509.9069684474 -1.99E-01
   136 OT LS       0.86E-01    4.6                    -7510.0963127832
   137 OT CG       0.86E-01   11.6     0.00054846     -7510.0963270928 -1.89E-01
   138 OT LS       0.87E-01    4.6                    -7510.2755719908
   139 OT CG       0.87E-01   11.6     0.00053547     -7510.2755844430 -1.79E-01
   140 OT LS       0.87E-01    4.6                    -7510.4464021043
   141 OT CG       0.87E-01   11.6     0.00052436     -7510.4464022331 -1.71E-01
   142 OT LS       0.87E-01    4.6                    -7510.6103408946
   143 OT CG       0.87E-01   11.7     0.00051547     -7510.6103410271 -1.64E-01
   144 OT LS       0.86E-01    4.6                    -7510.7671615379
   145 OT CG       0.86E-01   11.7     0.00050094     -7510.7671753264 -1.57E-01
   146 OT LS       0.87E-01    4.7                    -7510.9163263064
   147 OT CG       0.87E-01   11.7     0.00048603     -7510.9163322723 -1.49E-01
   148 OT LS       0.88E-01    4.6                    -7511.0596507832
   149 OT CG       0.88E-01   15.7     0.00047753     -7511.0597057630 -1.43E-01
   150 OT LS       0.87E-01    4.6                    -7511.1962427094
   151 OT CG       0.87E-01   11.7     0.00046782     -7511.1962662598 -1.37E-01
   152 OT LS       0.88E-01    4.6                    -7511.3273391226
   153 OT CG       0.88E-01   11.6     0.00045653     -7511.3273392731 -1.31E-01
   154 OT LS       0.88E-01    4.6                    -7511.4525724013
   155 OT CG       0.88E-01   11.6     0.00044328     -7511.4525735449 -1.25E-01
   156 OT LS       0.89E-01    4.6                    -7511.5726931289
   157 OT CG       0.89E-01   11.7     0.00043418     -7511.5727259184 -1.20E-01
   158 OT LS       0.89E-01    4.6                    -7511.6877919649
   159 OT CG       0.89E-01   11.7     0.00042714     -7511.6877922862 -1.15E-01
   160 OT LS       0.88E-01    4.9                    -7511.7977486366
   161 OT CG       0.88E-01   11.6     0.00041806     -7511.7977640177 -1.10E-01
   162 OT LS       0.88E-01    4.6                    -7511.9031923921
   163 OT CG       0.88E-01   11.6     0.00040758     -7511.9031925143 -1.05E-01
   164 OT LS       0.89E-01    4.6                    -7512.0047121328
   165 OT CG       0.89E-01   11.6     0.00040056     -7512.0047282069 -1.02E-01
   166 OT LS       0.89E-01    4.6                    -7512.1023124150
   167 OT CG       0.89E-01   11.6     0.00039419     -7512.1023152924 -9.76E-02
   168 OT LS       0.88E-01    4.6                    -7512.1964737588
   169 OT CG       0.88E-01   11.7     0.00038607     -7512.1964747678 -9.42E-02
   170 OT LS       0.88E-01    4.6                    -7512.2865305651
   171 OT CG       0.88E-01   11.6     0.00037725     -7512.2865309725 -9.01E-02
   172 OT LS       0.89E-01    4.6                    -7512.3731497529
   173 OT CG       0.89E-01   11.6     0.00036936     -7512.3731543545 -8.66E-02
   174 OT LS       0.89E-01    4.6                    -7512.4566350627
   175 OT CG       0.89E-01   11.8     0.00036250     -7512.4566369705 -8.35E-02
   176 OT LS       0.89E-01    4.6                    -7512.5368977441
   177 OT CG       0.89E-01   11.6     0.00035585     -7512.5368979925 -8.03E-02
   178 OT LS       0.89E-01    4.6                    -7512.6142305439
   179 OT CG       0.89E-01   11.6     0.00034803     -7512.6142305340 -7.73E-02
   180 OT LS       0.90E-01    4.6                    -7512.6887994799
   181 OT CG       0.90E-01   11.7     0.00034165     -7512.6888048554 -7.46E-02
   182 OT LS       0.90E-01    4.6                    -7512.7610027049
   183 OT CG       0.90E-01   11.7     0.00033561     -7512.7610040344 -7.22E-02
   184 OT LS       0.90E-01    4.6                    -7512.8306532016
   185 OT CG       0.90E-01   11.6     0.00033041     -7512.8306532274 -6.96E-02
   186 OT LS       0.90E-01    4.6                    -7512.8978994798
   187 OT CG       0.90E-01   11.7     0.00032440     -7512.8979003624 -6.72E-02
   188 OT LS       0.90E-01    4.6                    -7512.9624639263
   189 OT CG       0.90E-01   11.6     0.00031802     -7512.9624647333 -6.46E-02
   190 OT LS       0.90E-01    4.8                    -7513.0247453282
   191 OT CG       0.90E-01   11.7     0.00031238     -7513.0247461410 -6.23E-02
   192 OT LS       0.90E-01    4.6                    -7513.0848616212
   193 OT CG       0.90E-01   11.7     0.00030701     -7513.0848616179 -6.01E-02
   194 OT LS       0.90E-01    4.6                    -7513.1428681975
   195 OT CG       0.90E-01   11.6     0.00030203     -7513.1428682518 -5.80E-02
   196 OT LS       0.90E-01    4.6                    -7513.1989175781
   197 OT CG       0.90E-01   11.6     0.00029601     -7513.1989176705 -5.60E-02
   198 OT LS       0.90E-01    4.6                    -7513.2531188913
   199 OT CG       0.90E-01   11.7     0.00029111     -7513.2531215157 -5.42E-02
   200 OT LS       0.90E-01    4.6                    -7513.3055918978
   201 OT CG       0.90E-01   11.6     0.00028556     -7513.3055919141 -5.25E-02
   202 OT LS       0.91E-01    4.6                    -7513.3563081660
   203 OT CG       0.91E-01   11.6     0.00028148     -7513.3563091099 -5.07E-02
   204 OT LS       0.90E-01    5.1                    -7513.4053051245
   205 OT CG       0.90E-01   14.9     0.00027639     -7513.4053066453 -4.90E-02
   206 OT LS       0.90E-01    4.6                    -7513.4526129848
   207 OT CG       0.90E-01   11.6     0.00027195     -7513.4526131075 -4.73E-02
   208 OT LS       0.91E-01    4.6                    -7513.4985273288
   209 OT CG       0.91E-01   11.6     0.00026710     -7513.4985276092 -4.59E-02
   210 OT LS       0.91E-01    4.6                    -7513.5429427746
   211 OT CG       0.91E-01   11.7     0.00026304     -7513.5429430822 -4.44E-02
   212 OT LS       0.91E-01    4.6                    -7513.5860807218
   213 OT CG       0.91E-01   11.6     0.00025886     -7513.5860808087 -4.31E-02
   214 OT LS       0.91E-01    4.6                    -7513.6277520459
   215 OT CG       0.91E-01   11.6     0.00025481     -7513.6277522925 -4.17E-02
   216 OT LS       0.91E-01    4.6                    -7513.6682056687
   217 OT CG       0.91E-01   11.6     0.00025124     -7513.6682058225 -4.05E-02
   218 OT LS       0.91E-01    4.6                    -7513.7073540851
   219 OT CG       0.91E-01   11.9     0.00024715     -7513.7073549354 -3.91E-02
   220 OT LS       0.91E-01    4.6                    -7513.7452791611
   221 OT CG       0.91E-01   11.8     0.00024373     -7513.7452791958 -3.79E-02
   222 OT LS       0.91E-01    6.9                    -7513.7821320753
   223 OT CG       0.91E-01   11.7     0.00023920     -7513.7821320963 -3.69E-02
   224 OT LS       0.91E-01    4.6                    -7513.8177840432
   225 OT CG       0.91E-01   11.6     0.00023545     -7513.8177847765 -3.57E-02
   226 OT LS       0.91E-01    4.6                    -7513.8524902889
   227 OT CG       0.91E-01   11.7     0.00023164     -7513.8524910386 -3.47E-02
   228 OT LS       0.92E-01    4.6                    -7513.8861774043
   229 OT CG       0.92E-01   11.6     0.00022898     -7513.8861776496 -3.37E-02
   230 OT LS       0.91E-01    4.6                    -7513.9188707290
   231 OT CG       0.91E-01   11.7     0.00022623     -7513.9188722694 -3.27E-02
   232 OT LS       0.91E-01    4.6                    -7513.9507054758
   233 OT CG       0.91E-01   11.6     0.00022299     -7513.9507056833 -3.18E-02
   234 OT LS       0.91E-01    4.7                    -7513.9817398126
   235 OT CG       0.91E-01   11.6     0.00022025     -7513.9817402056 -3.10E-02
   236 OT LS       0.91E-01    4.6                    -7514.0120036113
   237 OT CG       0.91E-01   11.7     0.00021703     -7514.0120036180 -3.03E-02
   238 OT LS       0.91E-01    4.6                    -7514.0414106300
   239 OT CG       0.91E-01   11.6     0.00021429     -7514.0414106406 -2.94E-02
   240 OT LS       0.91E-01    4.6                    -7514.0700011382
   241 OT CG       0.91E-01   11.6     0.00021135     -7514.0700013655 -2.86E-02
   242 OT LS       0.91E-01    4.6                    -7514.0978866941
   243 OT CG       0.91E-01   11.6     0.00020840     -7514.0978869113 -2.79E-02
   244 OT LS       0.92E-01    4.6                    -7514.1251590717
   245 OT CG       0.92E-01   11.7     0.00020539     -7514.1251600512 -2.73E-02
   246 OT LS       0.92E-01    4.6                    -7514.1517812764
   247 OT CG       0.92E-01   11.6     0.00020261     -7514.1517818865 -2.66E-02
   248 OT LS       0.92E-01    4.6                    -7514.1777600633
   249 OT CG       0.92E-01   11.8     0.00020043     -7514.1777602358 -2.60E-02
   250 OT LS       0.92E-01    4.6                    -7514.2030043842
   251 OT CG       0.92E-01   11.6     0.00019824     -7514.2030056009 -2.52E-02
   252 OT LS       0.91E-01    4.6                    -7514.2275270657
   253 OT CG       0.91E-01   11.6     0.00019594     -7514.2275282697 -2.45E-02
   254 OT LS       0.91E-01    4.6                    -7514.2514375525
   255 OT CG       0.91E-01   11.6     0.00019338     -7514.2514376431 -2.39E-02
   256 OT LS       0.91E-01    4.6                    -7514.2747875725
   257 OT CG       0.91E-01   11.6     0.00019078     -7514.2747877079 -2.34E-02
   258 OT LS       0.92E-01    4.6                    -7514.2976100635
   259 OT CG       0.92E-01   11.6     0.00018870     -7514.2976104610 -2.28E-02
   260 OT LS       0.91E-01    4.6                    -7514.3198231161
   261 OT CG       0.91E-01   11.6     0.00018638     -7514.3198236766 -2.22E-02
   262 OT LS       0.91E-01    4.6                    -7514.3415825698
   263 OT CG       0.91E-01   11.8     0.00018409     -7514.3415829628 -2.18E-02
   264 OT LS       0.92E-01    4.6                    -7514.3629253614
   265 OT CG       0.92E-01   11.6     0.00018144     -7514.3629259317 -2.13E-02
   266 OT LS       0.92E-01    4.6                    -7514.3837766298
   267 OT CG       0.92E-01   11.7     0.00017954     -7514.3837772480 -2.09E-02
   268 OT LS       0.92E-01    4.6                    -7514.4041320766
   269 OT CG       0.92E-01   11.6     0.00017752     -7514.4041322563 -2.04E-02
   270 OT LS       0.92E-01    4.6                    -7514.4239031835
   271 OT CG       0.92E-01   11.6     0.00017533     -7514.4239039528 -1.98E-02
   272 OT LS       0.92E-01    4.6                    -7514.4432586687
   273 OT CG       0.92E-01   11.6     0.00017305     -7514.4432588984 -1.94E-02
   274 OT LS       0.92E-01    4.6                    -7514.4621266290
   275 OT CG       0.92E-01   11.7     0.00017092     -7514.4621266317 -1.89E-02
   276 OT LS       0.92E-01    4.6                    -7514.4805577679
   277 OT CG       0.92E-01   13.2     0.00016903     -7514.4805577960 -1.84E-02
   278 OT LS       0.92E-01    6.8                    -7514.4985454482
   279 OT CG       0.92E-01   11.7     0.00016725     -7514.4985455162 -1.80E-02
   280 OT LS       0.92E-01    4.6                    -7514.5161165757
   281 OT CG       0.92E-01   11.7     0.00016538     -7514.5161166577 -1.76E-02
   282 OT LS       0.92E-01    4.6                    -7514.5333303323
   283 OT CG       0.92E-01   11.7     0.00016361     -7514.5333303857 -1.72E-02
   284 OT LS       0.92E-01    4.6                    -7514.5501490730
   285 OT CG       0.92E-01   11.7     0.00016200     -7514.5501491381 -1.68E-02
   286 OT LS       0.92E-01    4.6                    -7514.5666203216
   287 OT CG       0.92E-01   11.6     0.00016025     -7514.5666203347 -1.65E-02
   288 OT LS       0.92E-01    4.6                    -7514.5827412588
   289 OT CG       0.92E-01   11.6     0.00015827     -7514.5827412622 -1.61E-02
   290 OT LS       0.92E-01    4.6                    -7514.5985647676
   291 OT CG       0.92E-01   11.6     0.00015645     -7514.5985653657 -1.58E-02
   292 OT LS       0.92E-01    4.6                    -7514.6140797408
   293 OT CG       0.92E-01   11.7     0.00015481     -7514.6140798849 -1.55E-02
   294 OT LS       0.92E-01    4.6                    -7514.6292608113
   295 OT CG       0.92E-01   13.0     0.00015344     -7514.6292608174 -1.52E-02
   296 OT LS       0.92E-01    4.6                    -7514.6441200262
   297 OT CG       0.92E-01   11.7     0.00015172     -7514.6441201988 -1.49E-02
   298 OT LS       0.92E-01    4.6                    -7514.6586791370
   299 OT CG       0.92E-01   11.6     0.00015006     -7514.6586792018 -1.46E-02
   300 OT LS       0.93E-01    4.6                    -7514.6729658256
   301 OT CG       0.93E-01   11.6     0.00014855     -7514.6729659395 -1.43E-02
   302 OT LS       0.92E-01    4.6                    -7514.6869473120
   303 OT CG       0.92E-01   11.7     0.00014704     -7514.6869473394 -1.40E-02
   304 OT LS       0.92E-01    4.6                    -7514.7006095004
   305 OT CG       0.92E-01   11.6     0.00014579     -7514.7006095891 -1.37E-02
   306 OT LS       0.92E-01    4.6                    -7514.7139347554
   307 OT CG       0.92E-01   11.7     0.00014428     -7514.7139355636 -1.33E-02
   308 OT LS       0.92E-01    4.6                    -7514.7270290287
   309 OT CG       0.92E-01   11.6     0.00014257     -7514.7270291555 -1.31E-02
   310 OT LS       0.92E-01    4.6                    -7514.7398874246
   311 OT CG       0.92E-01   11.6     0.00014128     -7514.7398878210 -1.29E-02
   312 OT LS       0.92E-01    4.6                    -7514.7524811018
   313 OT CG       0.92E-01   11.6     0.00013995     -7514.7524811928 -1.26E-02
   314 OT LS       0.92E-01    4.6                    -7514.7648273033
   315 OT CG       0.92E-01   11.6     0.00013849     -7514.7648273106 -1.23E-02
   316 OT LS       0.92E-01    4.6                    -7514.7769745119
   317 OT CG       0.92E-01   11.7     0.00013692     -7514.7769747765 -1.21E-02
   318 OT LS       0.93E-01    4.6                    -7514.7888848817
   319 OT CG       0.93E-01   11.6     0.00013573     -7514.7888849866 -1.19E-02
   320 OT LS       0.92E-01    4.6                    -7514.8005568835
   321 OT CG       0.92E-01   11.6     0.00013440     -7514.8005569814 -1.17E-02
   322 OT LS       0.92E-01    4.6                    -7514.8119864151
   323 OT CG       0.92E-01   11.8     0.00013314     -7514.8119864277 -1.14E-02
   324 OT LS       0.92E-01    4.6                    -7514.8231587178
   325 OT CG       0.92E-01   11.6     0.00013157     -7514.8231588946 -1.12E-02
   326 OT LS       0.92E-01    4.6                    -7514.8341183883
   327 OT CG       0.92E-01   11.6     0.00013025     -7514.8341185918 -1.10E-02
   328 OT LS       0.92E-01    4.6                    -7514.8448493854
   329 OT CG       0.92E-01   11.6     0.00012918     -7514.8448493972 -1.07E-02
   330 OT LS       0.92E-01    4.6                    -7514.8553818457
   331 OT CG       0.92E-01   11.6     0.00012784     -7514.8553818851 -1.05E-02
   332 OT LS       0.92E-01    4.6                    -7514.8657238805
   333 OT CG       0.92E-01   11.6     0.00012657     -7514.8657239502 -1.03E-02
   334 OT LS       0.92E-01    4.6                    -7514.8758731514
   335 OT CG       0.92E-01   11.6     0.00012558     -7514.8758731621 -1.01E-02
   336 OT LS       0.92E-01    4.6                    -7514.8858330462
   337 OT CG       0.92E-01   11.8     0.00012447     -7514.8858331493 -9.96E-03
   338 OT LS       0.92E-01    4.6                    -7514.8956334046
   339 OT CG       0.92E-01   11.6     0.00012330     -7514.8956334279 -9.80E-03
   340 OT LS       0.93E-01    4.6                    -7514.9052783799
   341 OT CG       0.93E-01   11.6     0.00012206     -7514.9052784712 -9.65E-03
   342 OT LS       0.93E-01    4.6                    -7514.9147213615
   343 OT CG       0.93E-01   11.6     0.00012088     -7514.9147213727 -9.44E-03
   344 OT LS       0.93E-01    4.6                    -7514.9240121038
   345 OT CG       0.93E-01   11.6     0.00011987     -7514.9240121966 -9.29E-03
   346 OT LS       0.92E-01    4.6                    -7514.9331159028
   347 OT CG       0.92E-01   11.6     0.00011878     -7514.9331160269 -9.10E-03
   348 OT LS       0.92E-01    4.6                    -7514.9420261986
   349 OT CG       0.92E-01   12.0     0.00011776     -7514.9420262883 -8.91E-03
   350 OT LS       0.92E-01    5.6                    -7514.9507966834
   351 OT CG       0.92E-01   13.1     0.00011651     -7514.9507967011 -8.77E-03
   352 OT LS       0.93E-01    4.8                    -7514.9594324233
   353 OT CG       0.93E-01   11.6     0.00011538     -7514.9594327227 -8.64E-03
   354 OT LS       0.93E-01    4.6                    -7514.9678803352
   355 OT CG       0.93E-01   11.6     0.00011458     -7514.9678803947 -8.45E-03
   356 OT LS       0.92E-01    4.6                    -7514.9761934032
   357 OT CG       0.92E-01   11.6     0.00011344     -7514.9761934375 -8.31E-03
   358 OT LS       0.92E-01    4.6                    -7514.9843438977
   359 OT CG       0.92E-01   11.7     0.00011249     -7514.9843438979 -8.15E-03
   360 OT LS       0.93E-01    4.6                    -7514.9923737824
   361 OT CG       0.93E-01   11.6     0.00011147     -7514.9923738132 -8.03E-03
   362 OT LS       0.93E-01    4.6                    -7515.0002489046
   363 OT CG       0.93E-01   11.6     0.00011055     -7515.0002489177 -7.88E-03
   364 OT LS       0.93E-01    4.6                    -7515.0079942111
   365 OT CG       0.93E-01   11.6     0.00010941     -7515.0079942111 -7.75E-03
   366 OT LS       0.93E-01    4.6                    -7515.0156051236
   367 OT CG       0.93E-01   11.9     0.00010851     -7515.0156052067 -7.61E-03
   368 OT LS       0.93E-01    6.2                    -7515.0230941839
   369 OT CG       0.93E-01   11.7     0.00010767     -7515.0230941841 -7.49E-03
   370 OT LS       0.92E-01    4.6                    -7515.0304232110
   371 OT CG       0.92E-01   11.6     0.00010679     -7515.0304234629 -7.33E-03
   372 OT LS       0.92E-01    4.6                    -7515.0376382019
   373 OT CG       0.92E-01   11.6     0.00010588     -7515.0376382048 -7.21E-03
   374 OT LS       0.92E-01    4.6                    -7515.0447221005
   375 OT CG       0.92E-01   11.6     0.00010476     -7515.0447221121 -7.08E-03
   376 OT LS       0.93E-01    4.6                    -7515.0516895320
   377 OT CG       0.93E-01   11.6     0.00010385     -7515.0516896804 -6.97E-03
   378 OT LS       0.93E-01    4.6                    -7515.0585354861
   379 OT CG       0.93E-01   11.6     0.00010279     -7515.0585354862 -6.85E-03
   380 OT LS       0.93E-01    4.6                    -7515.0652729560
   381 OT CG       0.93E-01   11.8     0.00010183     -7515.0652730963 -6.74E-03
   382 OT LS       0.93E-01    4.6                    -7515.0719070591
   383 OT CG       0.93E-01   11.6     0.00010087     -7515.0719071241 -6.63E-03
   384 OT LS       0.93E-01    4.6                    -7515.0784205781
   385 OT CG       0.93E-01   11.6     0.00010025     -7515.0784205808 -6.51E-03
   386 OT LS       0.93E-01    4.6                    -7515.0848174892
   387 OT CG       0.93E-01   11.6     0.00009953     -7515.0848176973 -6.40E-03
   388 OT LS       0.92E-01    4.6                    -7515.0910805906
   389 OT CG       0.92E-01   11.6     0.00009883     -7515.0910808699 -6.26E-03
   390 OT LS       0.92E-01    4.6                    -7515.0972531003
   391 OT CG       0.92E-01   11.6     0.00009796     -7515.0972531029 -6.17E-03
   392 OT LS       0.92E-01    4.6                    -7515.1033158704
   393 OT CG       0.92E-01   11.6     0.00009712     -7515.1033158706 -6.06E-03
   394 OT LS       0.93E-01    4.6                    -7515.1092979788
   395 OT CG       0.93E-01   11.6     0.00009628     -7515.1092980652 -5.98E-03
   396 OT LS       0.93E-01    4.6                    -7515.1151754661
   397 OT CG       0.93E-01   11.8     0.00009545     -7515.1151754662 -5.88E-03
   398 OT LS       0.93E-01    4.6                    -7515.1209699984
   399 OT CG       0.93E-01   11.6     0.00009481     -7515.1209700523 -5.79E-03
   400 OT LS       0.93E-01    4.6                    -7515.1266667158
   401 OT CG       0.93E-01   11.6     0.00009392     -7515.1266667939 -5.70E-03
   402 OT LS       0.93E-01    4.6                    -7515.1323094087
   403 OT CG       0.93E-01   11.6     0.00009334     -7515.1323098847 -5.64E-03
   404 OT LS       0.93E-01    4.6                    -7515.1378843728
   405 OT CG       0.93E-01   11.6     0.00009261     -7515.1378843733 -5.57E-03
   406 OT LS       0.94E-01    4.6                    -7515.1433797898
   407 OT CG       0.94E-01   11.6     0.00009213     -7515.1433798030 -5.50E-03
   408 OT LS       0.93E-01    4.6                    -7515.1487982003
   409 OT CG       0.93E-01   11.6     0.00009145     -7515.1487982883 -5.42E-03
   410 OT LS       0.93E-01    4.6                    -7515.1541321309
   411 OT CG       0.93E-01   11.7     0.00009092     -7515.1541321347 -5.33E-03
   412 OT LS       0.93E-01    4.6                    -7515.1593852157
   413 OT CG       0.93E-01   11.6     0.00009022     -7515.1593852802 -5.25E-03
   414 OT LS       0.93E-01    4.6                    -7515.1645450885
   415 OT CG       0.93E-01   11.6     0.00008959     -7515.1645451226 -5.16E-03
   416 OT LS       0.92E-01    4.6                    -7515.1696283573
   417 OT CG       0.92E-01   11.7     0.00008890     -7515.1696283635 -5.08E-03
   418 OT LS       0.92E-01    4.6                    -7515.1746360343
   419 OT CG       0.92E-01   11.6     0.00008830     -7515.1746360353 -5.01E-03
   420 OT LS       0.93E-01    4.6                    -7515.1795809398
   421 OT CG       0.93E-01   11.6     0.00008766     -7515.1795809456 -4.94E-03
   422 OT LS       0.93E-01    4.6                    -7515.1844568040
   423 OT CG       0.93E-01   14.5     0.00008691     -7515.1844568052 -4.88E-03
   424 OT LS       0.93E-01    5.0                    -7515.1892724572
   425 OT CG       0.93E-01   11.6     0.00008629     -7515.1892725659 -4.82E-03
   426 OT LS       0.93E-01    4.7                    -7515.1940241739
   427 OT CG       0.93E-01   11.6     0.00008575     -7515.1940241758 -4.75E-03
   428 OT LS       0.93E-01    4.6                    -7515.1987220285
   429 OT CG       0.93E-01   11.6     0.00008508     -7515.1987220356 -4.70E-03
   430 OT LS       0.93E-01    4.6                    -7515.2033467541
   431 OT CG       0.93E-01   11.6     0.00008461     -7515.2033467541 -4.62E-03
   432 OT LS       0.93E-01    4.6                    -7515.2079086979
   433 OT CG       0.93E-01   11.6     0.00008406     -7515.2079087282 -4.56E-03
   434 OT LS       0.93E-01    4.6                    -7515.2124100798
   435 OT CG       0.93E-01   11.7     0.00008350     -7515.2124100805 -4.50E-03
   436 OT LS       0.93E-01    4.6                    -7515.2168530248
   437 OT CG       0.93E-01   11.6     0.00008288     -7515.2168530248 -4.44E-03
   438 OT LS       0.93E-01    4.6                    -7515.2212211238
   439 OT CG       0.93E-01   11.7     0.00008248     -7515.2212211417 -4.37E-03
   440 OT LS       0.92E-01    4.6                    -7515.2255122398
   441 OT CG       0.92E-01   13.1     0.00008170     -7515.2255125097 -4.29E-03
   442 OT LS       0.93E-01    4.6                    -7515.2297560889
   443 OT CG       0.93E-01   11.7     0.00008110     -7515.2297563354 -4.24E-03
   444 OT LS       0.93E-01    4.6                    -7515.2339495458
   445 OT CG       0.93E-01   11.6     0.00008052     -7515.2339495728 -4.19E-03
   446 OT LS       0.93E-01    4.6                    -7515.2380837646
   447 OT CG       0.93E-01   11.6     0.00008002     -7515.2380837649 -4.13E-03
   448 OT LS       0.93E-01    4.6                    -7515.2421589193
   449 OT CG       0.93E-01   11.6     0.00007948     -7515.2421589315 -4.08E-03
   450 OT LS       0.93E-01    4.6                    -7515.2461818806
   451 OT CG       0.93E-01   11.7     0.00007891     -7515.2461818820 -4.02E-03
   452 OT LS       0.93E-01    4.6                    -7515.2501601812
   453 OT CG       0.93E-01   11.6     0.00007839     -7515.2501602168 -3.98E-03
   454 OT LS       0.93E-01    4.6                    -7515.2540703530
   455 OT CG       0.93E-01   11.9     0.00007788     -7515.2540704226 -3.91E-03
   456 OT LS       0.93E-01    4.6                    -7515.2579236575
   457 OT CG       0.93E-01   11.7     0.00007735     -7515.2579236642 -3.85E-03
   458 OT LS       0.93E-01    4.6                    -7515.2617230812
   459 OT CG       0.93E-01   11.6     0.00007661     -7515.2617230817 -3.80E-03
   460 OT LS       0.93E-01    4.6                    -7515.2654765040
   461 OT CG       0.93E-01   11.6     0.00007615     -7515.2654766749 -3.75E-03
   462 OT LS       0.93E-01    4.6                    -7515.2691775953
   463 OT CG       0.93E-01   11.6     0.00007572     -7515.2691776095 -3.70E-03
   464 OT LS       0.93E-01    4.6                    -7515.2728309420
   465 OT CG       0.93E-01   11.6     0.00007527     -7515.2728309502 -3.65E-03
   466 OT LS       0.93E-01    4.6                    -7515.2764405266
   467 OT CG       0.93E-01   11.7     0.00007484     -7515.2764405268 -3.61E-03
   468 OT LS       0.93E-01    4.6                    -7515.2800023434
   469 OT CG       0.93E-01   11.7     0.00007445     -7515.2800023554 -3.56E-03
   470 OT LS       0.93E-01    4.8                    -7515.2835243726
   471 OT CG       0.93E-01   11.6     0.00007398     -7515.2835243757 -3.52E-03
   472 OT LS       0.93E-01    4.6                    -7515.2869969703
   473 OT CG       0.93E-01   11.6     0.00007346     -7515.2869969789 -3.47E-03
   474 OT LS       0.93E-01    4.6                    -7515.2904351004
   475 OT CG       0.93E-01   11.6     0.00007303     -7515.2904351602 -3.44E-03
   476 OT LS       0.93E-01    4.6                    -7515.2938312939
   477 OT CG       0.93E-01   11.6     0.00007251     -7515.2938312946 -3.40E-03
   478 OT LS       0.93E-01    4.6                    -7515.2971957385
   479 OT CG       0.93E-01   11.6     0.00007209     -7515.2971958181 -3.36E-03
   480 OT LS       0.93E-01    4.6                    -7515.3005245650
   481 OT CG       0.93E-01   11.6     0.00007173     -7515.3005245668 -3.33E-03
   482 OT LS       0.93E-01    4.6                    -7515.3038038307
   483 OT CG       0.93E-01   11.7     0.00007138     -7515.3038039103 -3.28E-03
   484 OT LS       0.93E-01    4.6                    -7515.3070483388
   485 OT CG       0.93E-01   11.9     0.00007082     -7515.3070483407 -3.24E-03
   486 OT LS       0.93E-01    4.6                    -7515.3102565014
   487 OT CG       0.93E-01   11.6     0.00007048     -7515.3102565613 -3.21E-03
   488 OT LS       0.93E-01    4.6                    -7515.3134207297
   489 OT CG       0.93E-01   11.6     0.00007008     -7515.3134207833 -3.16E-03
   490 OT LS       0.93E-01    4.6                    -7515.3165415277
   491 OT CG       0.93E-01   11.6     0.00006969     -7515.3165415472 -3.12E-03
   492 OT LS       0.93E-01    4.6                    -7515.3196298265
   493 OT CG       0.93E-01   11.6     0.00006912     -7515.3196298280 -3.09E-03
   494 OT LS       0.93E-01    4.6                    -7515.3226813649
   495 OT CG       0.93E-01   12.4     0.00006866     -7515.3226814251 -3.05E-03
   496 OT LS       0.93E-01    5.7                    -7515.3256956871
   497 OT CG       0.93E-01   12.6     0.00006838     -7515.3256956898 -3.01E-03
   498 OT LS       0.93E-01    4.6                    -7515.3286671032
   499 OT CG       0.93E-01   11.6     0.00006790     -7515.3286672158 -2.97E-03
   500 OT LS       0.93E-01    4.7                    -7515.3316113983

  Leaving inner SCF loop after reaching   500 steps.


  Electronic density on regular grids:      -3327.9999971132        0.0000028868
  Core density on regular grids:             3327.9999997985       -0.0000002015
  Total charge density on r-space grids:        0.0000026854
  Total charge density g-space grids:           0.0000026854

  Overlap energy of the core charge distribution:               0.00000927113169
  Self energy of the core charge distribution:             -19339.33746902699568
  Core Hamiltonian energy:                                   5489.75907935318719
  Hartree energy:                                            8089.49819947940796
  Exchange-correlation energy:                              -1753.08501109746430
  Dispersion energy:                                           -2.16641937760991

  Total energy:                                             -7515.33161139834374

  outer SCF iter =    1 RMS gradient =   0.68E-04 energy =      -7515.3316113983

  ----------------------------------- OT ---------------------------------------
  Minimizer      : CG                  : conjugate gradient
  Preconditioner : FULL_ALL            : diagonalization, state selective
  Precond_solver : DEFAULT
  Line search    : 2PNT                : 2 energies, one gradient
  stepsize       :    0.15000000                  energy_gap     :    0.00100000
  eps_taylor     :   0.10000E-15                  max_taylor     :             4
  ----------------------------------- OT ---------------------------------------

  Step     Update method      Time    Convergence         Total energy    Change
  ------------------------------------------------------------------------------
     1 OT CG       0.15E+00   49.2     0.00047298     -7515.3316114732 -2.94E-03
     2 OT LS       0.25E+00    4.4                    -7515.6526669944
     3 OT CG       0.25E+00   11.6     0.00002894     -7515.7122967243 -3.81E-01
     4 OT LS       0.70E-01    4.4                    -7515.7101238141
     5 OT CG       0.70E-01   11.6     0.00000994     -7515.7127023526 -4.06E-04
     6 OT LS       0.65E-01    4.4                    -7515.7127459659
     7 OT CG       0.65E-01   11.6     0.00000306     -7515.7127463147 -4.40E-05
     8 OT LS       0.13E+00    4.4                    -7515.7127525936
     9 OT CG       0.13E+00   11.7     0.00000120     -7515.7127547787 -8.46E-06
    10 OT LS       0.10E+00    6.1                    -7515.7127556762
    11 OT CG       0.10E+00   11.7     0.00000049     -7515.7127557690 -9.90E-07

  *** SCF run converged in    11 steps ***


  Electronic density on regular grids:      -3327.9999971133        0.0000028867
  Core density on regular grids:             3327.9999997985       -0.0000002015
  Total charge density on r-space grids:        0.0000026852
  Total charge density g-space grids:           0.0000026852

  Overlap energy of the core charge distribution:               0.00000927113169
  Self energy of the core charge distribution:             -19339.33746902699568
  Core Hamiltonian energy:                                   5489.37817235162220
  Hartree energy:                                            8089.56559400886090
  Exchange-correlation energy:                              -1753.15264299599062
  Dispersion energy:                                           -2.16641937760991

  Total energy:                                             -7515.71275576898188

  outer SCF iter =    2 RMS gradient =   0.49E-06 energy =      -7515.7127557690
  outer SCF loop converged in   2 iterations or  511 steps


 ENERGY| Total FORCE_EVAL ( QS ) energy [a.u.]:            -7515.712755929579544

 ATOMIC FORCES in [a.u.]

 # Atom   Kind   Element          X              Y              Z
      1      1      Ti          0.00000000     0.00000000     0.00000000
      2      2      Si          0.00000000     0.00000000     0.00000000
      3      2      Si          0.00000000     0.00000000     0.00000000
      4      2      Si          0.00000000     0.00000000     0.00000000
      5      2      Si          0.00000000     0.00000000     0.00000000
      6      2      Si          0.00000000     0.00000000     0.00000000
      7      2      Si          0.00000000     0.00000000     0.00000000
      8      2      Si          0.00000000     0.00000000     0.00000000
      9      2      Si          0.00000000     0.00000000     0.00000000
     10      2      Si          0.00000000     0.00000000     0.00000000
     11      2      Si          0.00000000     0.00000000     0.00000000
     12      2      Si          0.00000000     0.00000000     0.00000000
     13      2      Si          0.00000000     0.00000000     0.00000000
     14      2      Si          0.00000000     0.00000000     0.00000000
     15      2      Si          0.00000000     0.00000000     0.00000000
     16      2      Si          0.00000000     0.00000000     0.00000000
     17      2      Si          0.00000000     0.00000000     0.00000000
     18      2      Si          0.00000000     0.00000000     0.00000000
     19      2      Si          0.00000000     0.00000000     0.00000000
     20      2      Si          0.00000000     0.00000000     0.00000000
     21      2      Si          0.00000000     0.00000000     0.00000000
     22      2      Si          0.00000000     0.00000000     0.00000000
     23      2      Si          0.00000000     0.00000000     0.00000000
     24      2      Si          0.00000000     0.00000000     0.00000000
     25      2      Si          0.00000000     0.00000000     0.00000000
     26      2      Si          0.00000000     0.00000000     0.00000000
     27      2      Si          0.00000000     0.00000000     0.00000000
     28      2      Si          0.00000000     0.00000000     0.00000000
     29      2      Si          0.00000000     0.00000000     0.00000000
     30      2      Si          0.00000000     0.00000000     0.00000000
     31      2      Si          0.00000000     0.00000000     0.00000000
     32      2      Si          0.00000000     0.00000000     0.00000000
     33      2      Si          0.00000000     0.00000000     0.00000000
     34      2      Si          0.00000000     0.00000000     0.00000000
     35      2      Si          0.00000000     0.00000000     0.00000000
     36      2      Si          0.00000000     0.00000000     0.00000000
     37      2      Si          0.00000000     0.00000000     0.00000000
     38      2      Si          0.00000000     0.00000000     0.00000000
     39      2      Si          0.00000000     0.00000000     0.00000000
     40      2      Si          0.00000000     0.00000000     0.00000000
     41      2      Si          0.00000000     0.00000000     0.00000000
     42      2      Si          0.00000000     0.00000000     0.00000000
     43      2      Si          0.00000000     0.00000000     0.00000000
     44      2      Si          0.00000000     0.00000000     0.00000000
     45      2      Si          0.00000000     0.00000000     0.00000000
     46      2      Si          0.00000000     0.00000000     0.00000000
     47      2      Si          0.00000000     0.00000000     0.00000000
     48      2      Si          0.00000000     0.00000000     0.00000000
     49      2      Si          0.00000000     0.00000000     0.00000000
     50      2      Si          0.00000000     0.00000000     0.00000000
     51      2      Si          0.00000000     0.00000000     0.00000000
     52      2      Si          0.00000000     0.00000000     0.00000000
     53      2      Si          0.00000000     0.00000000     0.00000000
     54      2      Si          0.00000000     0.00000000     0.00000000
     55      2      Si          0.00000000     0.00000000     0.00000000
     56      2      Si          0.00000000     0.00000000     0.00000000
     57      2      Si          0.00000000     0.00000000     0.00000000
     58      2      Si          0.00000000     0.00000000     0.00000000
     59      2      Si          0.00000000     0.00000000     0.00000000
     60      2      Si          0.00000000     0.00000000     0.00000000
     61      2      Si          0.00000000     0.00000000     0.00000000
     62      2      Si          0.00000000     0.00000000     0.00000000
     63      2      Si          0.00000000     0.00000000     0.00000000
     64      2      Si          0.00000000     0.00000000     0.00000000
     65      2      Si          0.00000000     0.00000000     0.00000000
     66      2      Si          0.00000000     0.00000000     0.00000000
     67      2      Si          0.00000000     0.00000000     0.00000000
     68      2      Si          0.00000000     0.00000000     0.00000000
     69      2      Si          0.00000000     0.00000000     0.00000000
     70      2      Si          0.00000000     0.00000000     0.00000000
     71      2      Si          0.00000000     0.00000000     0.00000000
     72      2      Si          0.00000000     0.00000000     0.00000000
     73      2      Si          0.00000000     0.00000000     0.00000000
     74      2      Si          0.00000000     0.00000000     0.00000000
     75      2      Si          0.00000000     0.00000000     0.00000000
     76      2      Si          0.00000000     0.00000000     0.00000000
     77      2      Si          0.00000000     0.00000000     0.00000000
     78      2      Si          0.00000000     0.00000000     0.00000000
     79      2      Si          0.00000000     0.00000000     0.00000000
     80      2      Si          0.00000000     0.00000000     0.00000000
     81      2      Si          0.00000000     0.00000000     0.00000000
     82      2      Si          0.00000000     0.00000000     0.00000000
     83      2      Si          0.00000000     0.00000000     0.00000000
     84      2      Si          0.00000000     0.00000000     0.00000000
     85      2      Si          0.00000000     0.00000000     0.00000000
     86      2      Si          0.00000000     0.00000000     0.00000000
     87      2      Si          0.00000000     0.00000000     0.00000000
     88      2      Si          0.00000000     0.00000000     0.00000000
     89      2      Si          0.00000000     0.00000000     0.00000000
     90      2      Si          0.00000000     0.00000000     0.00000000
     91      2      Si          0.00000000     0.00000000     0.00000000
     92      2      Si          0.00000000     0.00000000     0.00000000
     93      2      Si          0.00000000     0.00000000     0.00000000
     94      2      Si          0.00000000     0.00000000     0.00000000
     95      2      Si          0.00000000     0.00000000     0.00000000
     96      2      Si          0.00000000     0.00000000     0.00000000
     97      2      Si          0.00000000     0.00000000     0.00000000
     98      2      Si          0.00000000     0.00000000     0.00000000
     99      2      Si          0.00000000     0.00000000     0.00000000
    100      2      Si          0.00000000     0.00000000     0.00000000
    101      2      Si          0.00000000     0.00000000     0.00000000
    102      2      Si          0.00000000     0.00000000     0.00000000
    103      2      Si          0.00000000     0.00000000     0.00000000
    104      2      Si          0.00000000     0.00000000     0.00000000
    105      2      Si          0.00000000     0.00000000     0.00000000
    106      2      Si          0.00000000     0.00000000     0.00000000
    107      2      Si          0.00000000     0.00000000     0.00000000
    108      2      Si          0.00000000     0.00000000     0.00000000
    109      2      Si          0.00000000     0.00000000     0.00000000
    110      2      Si          0.00000000     0.00000000     0.00000000
    111      2      Si          0.00000000     0.00000000     0.00000000
    112      2      Si          0.00000000     0.00000000     0.00000000
    113      2      Si          0.00000000     0.00000000     0.00000000
    114      2      Si          0.00000000     0.00000000     0.00000000
    115      2      Si          0.00000000     0.00000000     0.00000000
    116      2      Si          0.00000000     0.00000000     0.00000000
    117      2      Si          0.00000000     0.00000000     0.00000000
    118      2      Si          0.00000000     0.00000000     0.00000000
    119      2      Si          0.00000000     0.00000000     0.00000000
    120      2      Si          0.00000000     0.00000000     0.00000000
    121      2      Si          0.00000000     0.00000000     0.00000000
    122      2      Si          0.00000000     0.00000000     0.00000000
    123      2      Si          0.00000000     0.00000000     0.00000000
    124      2      Si          0.00000000     0.00000000     0.00000000
    125      2      Si          0.00000000     0.00000000     0.00000000
    126      2      Si          0.00000000     0.00000000     0.00000000
    127      2      Si          0.00000000     0.00000000     0.00000000
    128      2      Si          0.00000000     0.00000000     0.00000000
    129      2      Si          0.00000000     0.00000000     0.00000000
    130      2      Si          0.00000000     0.00000000     0.00000000
    131      2      Si          0.00000000     0.00000000     0.00000000
    132      2      Si          0.00000000     0.00000000     0.00000000
    133      2      Si          0.00000000     0.00000000     0.00000000
    134      2      Si          0.00000000     0.00000000     0.00000000
    135      2      Si          0.00000000     0.00000000     0.00000000
    136      2      Si          0.00000000     0.00000000     0.00000000
    137      2      Si          0.00000000     0.00000000     0.00000000
    138      2      Si          0.00000000     0.00000000     0.00000000
    139      2      Si          0.00000000     0.00000000     0.00000000
    140      2      Si          0.00000000     0.00000000     0.00000000
    141      2      Si          0.00000000     0.00000000     0.00000000
    142      2      Si          0.00000000     0.00000000     0.00000000
    143      2      Si          0.00000000     0.00000000     0.00000000
    144      2      Si          0.00000000     0.00000000     0.00000000
    145      2      Si          0.00000000     0.00000000     0.00000000
    146      2      Si          0.00000000     0.00000000     0.00000000
    147      2      Si          0.00000000     0.00000000     0.00000000
    148      2      Si          0.00000000     0.00000000     0.00000000
    149      2      Si          0.00000000     0.00000000     0.00000000
    150      2      Si          0.00000000     0.00000000     0.00000000
    151      2      Si          0.00000000     0.00000000     0.00000000
    152      2      Si          0.00000000     0.00000000     0.00000000
    153      2      Si          0.00000000     0.00000000     0.00000000
    154      2      Si          0.00000000     0.00000000     0.00000000
    155      2      Si          0.00000000     0.00000000     0.00000000
    156      2      Si          0.00000000     0.00000000     0.00000000
    157      2      Si          0.00000000     0.00000000     0.00000000
    158      2      Si          0.00000000     0.00000000     0.00000000
    159      2      Si          0.00000000     0.00000000     0.00000000
    160      2      Si          0.00000000     0.00000000     0.00000000
    161      2      Si          0.00000000     0.00000000     0.00000000
    162      2      Si          0.00000000     0.00000000     0.00000000
    163      2      Si          0.00000000     0.00000000     0.00000000
    164      2      Si          0.00000000     0.00000000     0.00000000
    165      2      Si          0.00000000     0.00000000     0.00000000
    166      2      Si          0.00000000     0.00000000     0.00000000
    167      2      Si          0.00000000     0.00000000     0.00000000
    168      2      Si          0.00000000     0.00000000     0.00000000
    169      2      Si          0.00000000     0.00000000     0.00000000
    170      2      Si          0.00000000     0.00000000     0.00000000
    171      2      Si          0.00000000     0.00000000     0.00000000
    172      2      Si          0.00000000     0.00000000     0.00000000
    173      2      Si          0.00000000     0.00000000     0.00000000
    174      2      Si          0.00000000     0.00000000     0.00000000
    175      2      Si          0.00000000     0.00000000     0.00000000
    176      2      Si          0.00000000     0.00000000     0.00000000
    177      2      Si          0.00000000     0.00000000     0.00000000
    178      2      Si          0.00000000     0.00000000     0.00000000
    179      2      Si          0.00000000     0.00000000     0.00000000
    180      2      Si          0.00000000     0.00000000     0.00000000
    181      2      Si          0.00000000     0.00000000     0.00000000
    182      2      Si          0.00000000     0.00000000     0.00000000
    183      2      Si          0.00000000     0.00000000     0.00000000
    184      2      Si          0.00000000     0.00000000     0.00000000
    185      2      Si          0.00000000     0.00000000     0.00000000
    186      2      Si          0.00000000     0.00000000     0.00000000
    187      2      Si          0.00000000     0.00000000     0.00000000
    188      2      Si          0.00000000     0.00000000     0.00000000
    189      2      Si          0.00000000     0.00000000     0.00000000
    190      2      Si          0.00000000     0.00000000     0.00000000
    191      2      Si          0.00000000     0.00000000     0.00000000
    192      3      O           0.00000000     0.00000000     0.00000000
    193      3      O           0.00000000     0.00000000     0.00000000
    194      3      O           0.00000000     0.00000000     0.00000000
    195      3      O           0.00000000     0.00000000     0.00000000
    196      3      O           0.00000000     0.00000000     0.00000000
    197      3      O           0.00000000     0.00000000     0.00000000
    198      3      O           0.00000000     0.00000000     0.00000000
    199      3      O           0.00000000     0.00000000     0.00000000
    200      3      O           0.00000000     0.00000000     0.00000000
    201      3      O           0.00000000     0.00000000     0.00000000
    202      3      O           0.00000000     0.00000000     0.00000000
    203      3      O           0.00000000     0.00000000     0.00000000
    204      3      O           0.00000000     0.00000000     0.00000000
    205      3      O           0.00000000     0.00000000     0.00000000
    206      3      O           0.00000000     0.00000000     0.00000000
    207      3      O           0.00000000     0.00000000     0.00000000
    208      3      O           0.00000000     0.00000000     0.00000000
    209      3      O           0.00000000     0.00000000     0.00000000
    210      3      O           0.00000000     0.00000000     0.00000000
    211      3      O           0.00000000     0.00000000     0.00000000
    212      3      O           0.00000000     0.00000000     0.00000000
    213      3      O           0.00000000     0.00000000     0.00000000
    214      3      O           0.00000000     0.00000000     0.00000000
    215      3      O           0.00000000     0.00000000     0.00000000
    216      3      O           0.00000000     0.00000000     0.00000000
    217      3      O           0.00000000     0.00000000     0.00000000
    218      3      O           0.00000000     0.00000000     0.00000000
    219      3      O           0.00000000     0.00000000     0.00000000
    220      3      O           0.00000000     0.00000000     0.00000000
    221      3      O           0.00000000     0.00000000     0.00000000
    222      3      O           0.00000000     0.00000000     0.00000000
    223      3      O           0.00000000     0.00000000     0.00000000
    224      3      O           0.00000000     0.00000000     0.00000000
    225      3      O           0.00000000     0.00000000     0.00000000
    226      3      O           0.00000000     0.00000000     0.00000000
    227      3      O           0.00000000     0.00000000     0.00000000
    228      3      O           0.00000000     0.00000000     0.00000000
    229      3      O           0.00000000     0.00000000     0.00000000
    230      3      O           0.00000000     0.00000000     0.00000000
    231      3      O           0.00000000     0.00000000     0.00000000
    232      3      O           0.00000000     0.00000000     0.00000000
    233      3      O           0.00000000     0.00000000     0.00000000
    234      3      O           0.00000000     0.00000000     0.00000000
    235      3      O           0.00000000     0.00000000     0.00000000
    236      3      O           0.00000000     0.00000000     0.00000000
    237      3      O           0.00000000     0.00000000     0.00000000
    238      3      O           0.00000000     0.00000000     0.00000000
    239      3      O           0.00000000     0.00000000     0.00000000
    240      3      O           0.00000000     0.00000000     0.00000000
    241      3      O           0.00000000     0.00000000     0.00000000
    242      3      O           0.00000000     0.00000000     0.00000000
    243      3      O           0.00000000     0.00000000     0.00000000
    244      3      O           0.00000000     0.00000000     0.00000000
    245      3      O           0.00000000     0.00000000     0.00000000
    246      3      O           0.00000000     0.00000000     0.00000000
    247      3      O           0.00000000     0.00000000     0.00000000
    248      3      O           0.00000000     0.00000000     0.00000000
    249      3      O           0.00000000     0.00000000     0.00000000
    250      3      O           0.00000000     0.00000000     0.00000000
    251      3      O           0.00000000     0.00000000     0.00000000
    252      3      O           0.00000000     0.00000000     0.00000000
    253      3      O           0.00000000     0.00000000     0.00000000
    254      3      O           0.00000000     0.00000000     0.00000000
    255      3      O           0.00000000     0.00000000     0.00000000
    256      3      O           0.00000000     0.00000000     0.00000000
    257      3      O           0.00000000     0.00000000     0.00000000
    258      3      O           0.00000000     0.00000000     0.00000000
    259      3      O           0.00000000     0.00000000     0.00000000
    260      3      O           0.00000000     0.00000000     0.00000000
    261      3      O           0.00000000     0.00000000     0.00000000
    262      3      O           0.00000000     0.00000000     0.00000000
    263      3      O           0.00000000     0.00000000     0.00000000
    264      3      O           0.00000000     0.00000000     0.00000000
    265      3      O           0.00000000     0.00000000     0.00000000
    266      3      O           0.00000000     0.00000000     0.00000000
    267      3      O           0.00000000     0.00000000     0.00000000
    268      3      O           0.00000000     0.00000000     0.00000000
    269      3      O           0.00000000     0.00000000     0.00000000
    270      3      O           0.00000000     0.00000000     0.00000000
    271      3      O           0.00000000     0.00000000     0.00000000
    272      3      O           0.00000000     0.00000000     0.00000000
    273      3      O           0.00000000     0.00000000     0.00000000
    274      3      O           0.00000000     0.00000000     0.00000000
    275      3      O           0.00000000     0.00000000     0.00000000
    276      3      O           0.00000000     0.00000000     0.00000000
    277      3      O           0.00000000     0.00000000     0.00000000
    278      3      O           0.00000000     0.00000000     0.00000000
    279      3      O           0.00000000     0.00000000     0.00000000
    280      3      O           0.00000000     0.00000000     0.00000000
    281      3      O           0.00000000     0.00000000     0.00000000
    282      3      O           0.00000000     0.00000000     0.00000000
    283      3      O           0.00000000     0.00000000     0.00000000
    284      3      O           0.00000000     0.00000000     0.00000000
    285      3      O           0.00000000     0.00000000     0.00000000
    286      3      O           0.00000000     0.00000000     0.00000000
    287      3      O           0.00000000     0.00000000     0.00000000
    288      3      O           0.00000000     0.00000000     0.00000000
    289      3      O           0.00000000     0.00000000     0.00000000
    290      3      O           0.00000000     0.00000000     0.00000000
    291      3      O           0.00000000     0.00000000     0.00000000
    292      3      O           0.00000000     0.00000000     0.00000000
    293      3      O           0.00000000     0.00000000     0.00000000
    294      3      O           0.00000000     0.00000000     0.00000000
    295      3      O           0.00000000     0.00000000     0.00000000
    296      3      O           0.00000000     0.00000000     0.00000000
    297      3      O           0.00000000     0.00000000     0.00000000
    298      3      O           0.00000000     0.00000000     0.00000000
    299      3      O           0.00000000     0.00000000     0.00000000
    300      3      O           0.00000000     0.00000000     0.00000000
    301      3      O           0.00000000     0.00000000     0.00000000
    302      3      O           0.00000000     0.00000000     0.00000000
    303      3      O           0.00000000     0.00000000     0.00000000
    304      3      O           0.00000000     0.00000000     0.00000000
    305      3      O           0.00000000     0.00000000     0.00000000
    306      3      O           0.00000000     0.00000000     0.00000000
    307      3      O           0.00000000     0.00000000     0.00000000
    308      3      O           0.00000000     0.00000000     0.00000000
    309      3      O           0.00000000     0.00000000     0.00000000
    310      3      O           0.00000000     0.00000000     0.00000000
    311      3      O           0.00000000     0.00000000     0.00000000
    312      3      O           0.00000000     0.00000000     0.00000000
    313      3      O           0.00000000     0.00000000     0.00000000
    314      3      O           0.00000000     0.00000000     0.00000000
    315      3      O           0.00000000     0.00000000     0.00000000
    316      3      O           0.00000000     0.00000000     0.00000000
    317      3      O           0.00000000     0.00000000     0.00000000
    318      3      O           0.00000000     0.00000000     0.00000000
    319      3      O           0.00000000     0.00000000     0.00000000
    320      3      O           0.00000000     0.00000000     0.00000000
    321      3      O           0.00000000     0.00000000     0.00000000
    322      3      O           0.00000000     0.00000000     0.00000000
    323      3      O           0.00000000     0.00000000     0.00000000
    324      3      O           0.00000000     0.00000000     0.00000000
    325      3      O           0.00000000     0.00000000     0.00000000
    326      3      O           0.00000000     0.00000000     0.00000000
    327      3      O           0.00000000     0.00000000     0.00000000
    328      3      O           0.00000000     0.00000000     0.00000000
    329      3      O           0.00000000     0.00000000     0.00000000
    330      3      O           0.00000000     0.00000000     0.00000000
    331      3      O           0.00000000     0.00000000     0.00000000
    332      3      O           0.00000000     0.00000000     0.00000000
    333      3      O           0.00000000     0.00000000     0.00000000
    334      3      O           0.00000000     0.00000000     0.00000000
    335      3      O           0.00000000     0.00000000     0.00000000
    336      3      O           0.00000000     0.00000000     0.00000000
    337      3      O           0.00000000     0.00000000     0.00000000
    338      3      O           0.00000000     0.00000000     0.00000000
    339      3      O           0.00000000     0.00000000     0.00000000
    340      3      O           0.00000000     0.00000000     0.00000000
    341      3      O           0.00000000     0.00000000     0.00000000
    342      3      O           0.00000000     0.00000000     0.00000000
    343      3      O           0.00000000     0.00000000     0.00000000
    344      3      O           0.00000000     0.00000000     0.00000000
    345      3      O           0.00000000     0.00000000     0.00000000
    346      3      O           0.00000000     0.00000000     0.00000000
    347      3      O           0.00000000     0.00000000     0.00000000
    348      3      O           0.00000000     0.00000000     0.00000000
    349      3      O           0.00000000     0.00000000     0.00000000
    350      3      O           0.00000000     0.00000000     0.00000000
    351      3      O           0.00000000     0.00000000     0.00000000
    352      3      O           0.00000000     0.00000000     0.00000000
    353      3      O           0.00000000     0.00000000     0.00000000
    354      3      O           0.00000000     0.00000000     0.00000000
    355      3      O           0.00000000     0.00000000     0.00000000
    356      3      O           0.00000000     0.00000000     0.00000000
    357      3      O           0.00000000     0.00000000     0.00000000
    358      3      O           0.00000000     0.00000000     0.00000000
    359      3      O           0.00000000     0.00000000     0.00000000
    360      3      O           0.00000000     0.00000000     0.00000000
    361      3      O           0.00000000     0.00000000     0.00000000
    362      3      O           0.00000000     0.00000000     0.00000000
    363      3      O           0.00000000     0.00000000     0.00000000
    364      3      O           0.00000000     0.00000000     0.00000000
[...]
 flops  2059 x   256 x   128        5473110589440       0.0%    100.0%      0.0%
 flops  2061 x   256 x   128        5478426869760       0.0%    100.0%      0.0%
 flops   416 x   256 x   128        5499705622528       0.0%    100.0%      0.0%
 flops    13 x    32 x     5        5906794766080       0.0%    100.0%      0.0%
 flops     5 x    32 x    13        5906794766080       0.0%    100.0%      0.0%
 flops  2056 x   256 x   688        5967723888640       0.0%    100.0%      0.0%
 flops  2058 x   256 x   688        5973529067520       0.0%    100.0%      0.0%
 flops  2059 x   256 x   688        5976431656960       0.0%    100.0%      0.0%
 flops  2061 x   256 x   688        5982236835840       0.0%    100.0%      0.0%
 flops  2056 x   288 x   160        7685347737600       0.0%    100.0%      0.0%
 flops  2058 x   288 x   160        7692823756800       0.0%    100.0%      0.0%
 flops  2059 x   288 x   160        7696561766400       0.0%    100.0%      0.0%
 flops  2061 x   288 x   160        7704037785600       0.0%    100.0%      0.0%
 flops   416 x   288 x   160        7733961031680       0.0%    100.0%      0.0%
 flops   416 x   288 x   680        9729406402560       0.0%    100.0%      0.0%
 flops    13 x    13 x   160        9871709985280       0.0%    100.0%      0.0%
 flops   416 x   256 x   688       10937633341440       0.0%    100.0%      0.0%
 flops  2056 x   288 x   128       12296556380160       0.0%    100.0%      0.0%
 flops  2058 x   288 x   128       12308518010880       0.0%    100.0%      0.0%
 flops  2059 x   288 x   128       12314498826240       0.0%    100.0%      0.0%
 flops  2061 x   288 x   128       12326460456960       0.0%    100.0%      0.0%
 flops   416 x   288 x   128       12374337650688       0.0%    100.0%      0.0%
 flops  2056 x   288 x   688       13427378749440       0.0%    100.0%      0.0%
 flops  2058 x   288 x   688       13440440401920       0.0%    100.0%      0.0%
 flops  2059 x   288 x   688       13446971228160       0.0%    100.0%      0.0%
 flops  2061 x   288 x   688       13460032880640       0.0%    100.0%      0.0%
 flops    13 x    13 x   128       15794735976448       0.0%    100.0%      0.0%
 flops   416 x   288 x   688       24609675018240       0.0%    100.0%      0.0%
 flops    13 x    32 x    13       97305841757696       0.0%    100.0%      0.0%
 flops inhomo. stacks              91630870855680     100.0%      0.0%      0.0%
 flops total                       556.550077E+12      16.5%     83.5%      0.0%
 flops max/rank                     24.160512E+12      16.4%     83.6%      0.0%
 matmuls inhomo. stacks                    258240     100.0%      0.0%      0.0%
 matmuls total                        12976377684       0.0%    100.0%      0.0%
 number of processed stacks              17388272       1.5%     98.5%      0.0%
 average stack size                                     1.0     757.5       0.0
 marketing flops                   932.511085E+12
 -------------------------------------------------------------------------------
 # multiplications                          10730
 max memory usage/rank             999.927808E+06
 # max total images/rank                        3
 # max 3D layers                                1
 # MPI messages exchanged                 4892880
 MPI messages size (bytes):
  total size                         8.790758E+12
  min size                           0.000000E+00
  max size                          11.475648E+06
  average size                       1.796643E+06
 MPI breakdown and total messages size (bytes):
             size <=      128               24804                        0
       128 < size <=     8192                   0                        0
      8192 < size <=    32768                 936                 30670848
     32768 < size <=   131072                 468                 19169280
    131072 < size <=  4194304             4668912            6555195465568
   4194304 < size <= 16777216              197760            2234646997760
  16777216 < size                               0                        0
 -------------------------------------------------------------------------------

 *** WARNING in dbcsr_mm.F:294 :: Using a non-square number of MPI ranks ***
 *** might lead to poor performance. Used ranks: 24 Suggested: 25 49     ***

 -------------------------------------------------------------------------------
 -                                                                             -
 -                      DBCSR MESSAGE PASSING PERFORMANCE                      -
 -                                                                             -
 -------------------------------------------------------------------------------
 ROUTINE             CALLS      AVE VOLUME [Bytes]
 MP_Bcast               81                     12.
 MP_Allreduce        54289                    131.
 MP_Alltoall         46871                 732773.
 MP_ISend           494980                 808144.
 MP_IRecv           486702                 814927.
 -------------------------------------------------------------------------------

 -------------------------------------------------------------------------------
 -                                                                             -
 -                                GRID STATISTICS                              -
 -                                                                             -
 -------------------------------------------------------------------------------
 LP    KERNEL             BACKEND                              COUNT     PERCENT
 4     collocate ortho    REF                              219680408      48.40%
 4     integrate ortho    REF                              109840204      24.20%
 3     collocate ortho    REF                               55334506      12.19%
 3     integrate ortho    REF                               27667253       6.10%
 2     collocate ortho    REF                               15688734       3.46%
 7     integrate ortho    REF                               10896218       2.40%
 2     integrate ortho    REF                                7844367       1.73%
 6     integrate ortho    REF                                2758124       0.61%
 5     integrate ortho    REF                                1460531       0.32%
 5     collocate ortho    REF                                1363688       0.30%
 0     collocate general  REF                                 613776       0.14%
 3     integrate general  REF                                 597624       0.13%
 8     integrate ortho    REF                                  67636       0.01%
 6     collocate ortho    REF                                  26856       0.01%
 9     integrate ortho    REF                                   1332       0.00%
 -------------------------------------------------------------------------------

 MEMORY| Estimated peak process memory [MiB]                                 954

 -------------------------------------------------------------------------------
 -                                                                             -
 -                         MESSAGE PASSING PERFORMANCE                         -
 -                                                                             -
 -------------------------------------------------------------------------------

 ROUTINE             CALLS      AVE VOLUME [Bytes]
 MP_Group                5
 MP_Bcast            35410                 238904.
 MP_Allreduce        93060                   1223.
 MP_Sync               659
 MP_Alltoall         12650               34260139.
 MP_SendRecv          3404                  16548.
 MP_ISendRecv        79764                 127093.
 MP_Wait            157229
 MP_ISend            69148                 803408.
 MP_IRecv            69148                 803578.
 MP_Recv              5283                1446552.
 -------------------------------------------------------------------------------


 -------------------------------------------------------------------------------
 -                                                                             -
 -                           R E F E R E N C E S                               -
 -                                                                             -
 -------------------------------------------------------------------------------
 
 CP2K version 9.1, the CP2K developers group (2021).
 CP2K is freely available from https://www.cp2k.org/ .

 Kuehne,Thomas D.; Iannuzzi,Marcella; Del Ben,Mauro;
 Rybkin,Vladimir V.; Seewald,Patrick; Stein,Frederick; Laino,Teodoro;
 Khaliullin,Rustam Z.; Schuett,Ole; Schiffmann,Florian; Golze,Dorothea;
 Wilhelm,Jan; Chulkov,Sergey; Bani-Hashemian,Mohammad Hossein;
 Weber,Valery; Borstnik,Urban; Taillefumier,Mathieu;
 Jakobovits,Alice Shoshana; Lazzaro,Alfio; Pabst,Hans; Mueller,Tiziano;
 Schade,Robert; Guidon,Manuel; Andermatt,Samuel; Holmberg,Nico;
 Schenter,Gregory K.; Hehn,Anna; Bussy,Augustin; Belleflamme,Fabian;
 Tabacchi,Gloria; Gloess,Andreas; Lass,Michael; Bethune,Iain;
 Mundy,Christopher J.; Plessl,Christian; Watkins,Matt;
 VandeVondele,Joost; Krack,Matthias; Hutter,Juerg. 
 The Journal of Chemical Physics, 152 (19), (2020). 
 CP2K: An electronic structure and molecular dynamics software package -
 Quickstep: Efficient and accurate electronic structure calculations.
 https://doi.org/10.1063/5.0007045

 Goerigk, Lars; Hansen, Andreas; Bauer, Christoph; Ehrlich, Stephan;
 Najibi, Asim; Grimme, Stefan. , 19 (48), (2017). 
 A look at the density functional theory zoo with the advanced GMTKN55 database
 for general main group thermochemistry, kinetics and noncovalent interactions.
 https://doi.org/10.1039/C7CP04913G

 Schuett, Ole; Messmer, Peter; Hutter, Juerg; VandeVondele, Joost. 
 Electronic Structure Calculations on Graphics Processing Units, John
 Wiley & Sons, Ltd, 173-190 (2016). 
 GPU-Accelerated Sparse Matrix-Matrix Multiplication for
 Linear Scaling Density Functional Theory.
 https://doi.org/10.1002/9781118670712.ch8

 Heinecke, A; Henry, G; Hutchinson, M; Pabst, H. 
 Proceedings of Intl. Supercomputing Conference, 981-991 (2016). 
 LIBXSMM: Accelerating Small Matrix Multiplications
 by Runtime Code Generation.
 https://doi.org/10.1109/SC.2016.83

 Borstnik, U; VandeVondele, J; Weber, V; Hutter, J. 
 PARALLEL COMPUTING, 40 (5-6), 47-58 (2014). 
 Sparse matrix multiplication: The distributed block-compressed sparse
 row library.
 https://doi.org/10.1016/j.parco.2014.03.012

 Hutter, J; Iannuzzi, M; Schiffmann, F; VandeVondele, J. 
 WIREs Comput Mol Sci., 4 (1), 15-25 (2014). 
 CP2K: atomistic simulations of condensed matter systems.
 https://doi.org/10.1002/wcms.1159

 Grimme, S; Ehrlich, S; Goerigk, L. 
 JOURNAL OF COMPUTATIONAL CHEMISTRY, 32, 1456 (2011). 
 Effect of the damping function in dispersion corrected density functional theory.
 https://doi.org/10.1002/jcc.21759

 Grimme, S; Antony, J; Ehrlich, S; Krieg, H. 
 JOURNAL OF CHEMICAL PHYSICS, 132 (15), 154104 (2010). 
 A consistent and accurate ab initio parametrization of density
 functional dispersion correction (DFT-D) for the 94 elements H-Pu.
 https://doi.org/10.1063/1.3382344

 VandeVondele, J; Hutter, J. 
 JOURNAL OF CHEMICAL PHYSICS, 127 (11), 114105 (2007). 
 Gaussian basis sets for accurate calculations on molecular systems in
 gas and condensed phases.
 https://doi.org/10.1063/1.2770708

 Kuhne, TD; Krack, M; Mohamed, FR; Parrinello, M. 
 PHYSICAL REVIEW LETTERS, 98 (6), 066401 (2007). 
 Efficient and accurate Car-Parrinello-like approach to
 Born-Oppenheimer molecular dynamics.
 https://doi.org/10.1103/PhysRevLett.98.066401

 Krack, M. 
 THEORETICAL CHEMISTRY ACCOUNTS, 114 (1-3), 145-152 (2005). 
 Pseudopotentials for H to Kr optimized for gradient-corrected
 exchange-correlation functionals.
 https://doi.org/10.1007/s00214-005-0655-y

 VandeVondele, J; Krack, M; Mohamed, F; Parrinello, M; Chassaing, T;
 Hutter, J. COMPUTER PHYSICS COMMUNICATIONS, 167 (2), 103-128 (2005). 
 QUICKSTEP: Fast and accurate density functional calculations using a
 mixed Gaussian and plane waves approach.
 https://doi.org/10.1016/j.cpc.2004.12.014

 Frigo, M; Johnson, SG. 
 PROCEEDINGS OF THE IEEE, 93 (2), 216-231 (2005). 
 The design and implementation of FFTW3.
 https://doi.org/10.1109/JPROC.2004.840301

 Kolafa, J. 
 JOURNAL OF COMPUTATIONAL CHEMISTRY, 25 (3), 335-342 (2004). 
 Time-reversible always stable predictor-corrector method for
 molecular dynamics of polarizable molecules.
 https://doi.org/10.1002/jcc.10385

 VandeVondele, J; Hutter, J. 
 JOURNAL OF CHEMICAL PHYSICS, 118 (10), 4365-4369 (2003). 
 An efficient orbital transformation method for electronic structure
 calculations.
 https://doi.org/10.1063/1.1543154

 Hartwigsen, C; Goedecker, S; Hutter, J. 
 PHYSICAL REVIEW B, 58 (7), 3641-3662 (1998). 
 Relativistic separable dual-space Gaussian pseudopotentials from H to Rn.
 https://doi.org/10.1103/PhysRevB.58.3641

 Lippert, G; Hutter, J; Parrinello, M. 
 MOLECULAR PHYSICS, 92 (3), 477-487 (1997). 
 A hybrid Gaussian and plane wave density functional scheme.
 https://doi.org/10.1080/002689797170220

 Perdew, JP; Burke, K; Ernzerhof, M. 
 PHYSICAL REVIEW LETTERS, 77 (18), 3865-3868 (1996). 
 Generalized gradient approximation made simple.
 https://doi.org/10.1103/PhysRevLett.77.3865

 Goedecker, S; Teter, M; Hutter, J. 
 PHYSICAL REVIEW B, 54 (3), 1703-1710 (1996). 
 Separable dual-space Gaussian pseudopotentials.
 https://doi.org/10.1103/PhysRevB.54.1703


 -------------------------------------------------------------------------------
 -                                                                             -
 -                                T I M I N G                                  -
 -                                                                             -
 -------------------------------------------------------------------------------
 SUBROUTINE                       CALLS  ASD         SELF TIME        TOTAL TIME
                                MAXIMUM       AVERAGE  MAXIMUM  AVERAGE  MAXIMUM
 CP2K                                 1  1.0    0.030    0.046 7936.637 7936.659
 cp_geo_opt                           1  2.0    0.001    0.002 7935.225 7935.260
 geoopt_bfgs                          1  3.0    0.262    0.298 7935.224 7935.259
 cp_eval_at                          38  4.0    0.009    0.064 7908.017 7908.057
 qs_forces                           37  5.0    0.012    0.013 7841.685 7841.707
 qs_energies                         38  6.0    0.004    0.006 7457.979 7458.174
 scf_env_do_scf                      38  7.0    0.002    0.004 7186.018 7186.065
 scf_env_do_scf_inner_loop          708  8.0    0.016    0.051 5719.111 5727.149
 rebuild_ks_matrix                  745  9.8    0.004    0.019 2803.738 2806.108
 qs_ks_build_kohn_sham_matrix       745 10.8    0.104    0.114 2803.734 2806.104
 qs_ks_update_qs_env                747  9.0    0.006    0.006 2454.257 2456.420
 dbcsr_multiply_generic           10730 13.8    0.799    0.858 1990.387 1999.681
 qs_scf_new_mos                     708  9.0    0.005    0.006 1913.681 1919.396
 qs_scf_loop_do_ot                  708 10.0    0.005    0.007 1913.677 1919.391
 ot_scf_mini                        708 11.0    0.031    0.038 1782.509 1784.692
 multiply_cannon                  10730 14.8    1.103    1.222 1690.184 1715.296
 multiply_cannon_loop             10730 15.8    1.691    1.990 1632.946 1660.085
 qs_rho_update_rho                  746  9.0    0.004    0.005 1631.012 1633.446
 calculate_rho_elec                 746 10.0    3.242    3.300 1631.008 1633.442
 init_scf_loop                       39  8.0    0.002    0.003 1457.798 1457.846
 sum_up_and_integrate               410 11.7    2.003    2.050 1420.345 1420.533
 integrate_v_rspace                 410 12.7    0.016    0.018 1418.341 1418.541
 multiply_cannon_multrec         128760 16.8 1298.000 1350.098 1298.158 1350.264
 grid_collocate_task_list           746 11.0 1206.027 1237.519 1206.027 1237.519
 grid_integrate_task_list           410 13.7 1227.951 1236.401 1227.951 1236.401
 prepare_preconditioner              39  9.0    0.000    0.001 1228.363 1228.726
 make_preconditioner                 39 10.0    0.001    0.002 1187.461 1187.681
 make_full_all                       39 11.0    0.069    0.088 1152.217 1153.030
 qs_vxc_create                      745 11.8    0.014    0.016 1131.056 1131.424
 pw_transfer                      12339 13.3    0.929    1.032 1049.533 1064.857
 ot_mini                            708 12.0    0.005    0.007 1048.120 1050.647
 fft_wrap_pw1pw2                  10849 14.4    0.141    0.152 1033.528 1048.915
 fft_wrap_pw1pw2_180               6225 15.6   88.595   89.587  998.399 1012.795
 cp_fm_syevd                        654 13.9    0.012    0.016  869.100  869.738
 cp_fm_syevd_base                   654 14.9  863.648  863.772  863.648  863.772
 xc_rho_set_and_dset_create         745 13.8    6.112    6.197  797.408  809.767
 fft3d_ps                         10849 16.4  433.496  444.019  777.006  792.081
 xc_vxc_pw_create                   410 12.7   26.214   28.801  765.769  766.138
 apply_preconditioner_dbcsr         412 14.0    0.001    0.002  604.206  608.106
 apply_all                          412 15.0    0.719    0.750  604.205  608.105
 ot_new_cg_direction                373 13.0    0.008    0.010  556.961  556.990
 qs_ot_get_derivative               373 13.0    0.005    0.006  487.442  489.646
 mp_waitall_1                    688961 17.6  406.042  475.883  406.042  475.883
 density_rs2pw                      746 11.0    0.053    0.060  405.670  423.582
 multiply_cannon_metrocomm3      128760 16.8    0.438    0.573  325.026  392.814
 xc_functional_eval                 745 14.8    0.010    0.012  365.718  378.088
 pbe_lda_eval                       745 15.8  365.708  378.078  365.708  378.078
 xc_exc_calc                        335 13.0    1.415    1.434  365.272  365.308
 qs_ks_update_qs_env_forces          37  6.0    0.000    0.000  352.304  352.498
 qs_ot_get_p                        747 11.9    0.006    0.007  310.954  316.021
 rs_pw_transfer                    5855 13.0    0.082    0.090  228.337  248.311
 qs_ot_get_orbitals                 708 12.0    0.005    0.008  230.898  232.407
 x_to_yz                           5441 18.1  165.673  166.603  222.836  226.619
 make_m2s                         21460 14.8    0.776    0.888  221.265  223.935
 qs_ot_get_derivative_diag          249 14.0    0.009    0.012  219.886  221.568
 init_scf_run                        38  7.0    0.001    0.002  205.383  205.388
 scf_env_initial_rho_setup           38  8.0    0.001    0.001  205.382  205.386
 wfi_extrapolate                     38  9.0    0.005    0.006  200.894  200.894
 cp_gemm                            621 10.2    0.002    0.002  194.655  196.103
 cp_gemm_fm_gemm                    621 11.2    0.002    0.002  194.653  196.102
 cp_fm_gemm                         621 12.2  194.651  196.100  194.651  196.100
 qs_ot_p2m_diag                     500 13.0    5.512    5.845  173.635  174.470
 potential_pw2rs                    410 13.7    0.150    0.215  169.059  169.209
 make_images                      21460 15.8    5.091    5.213  155.875  160.505
 -------------------------------------------------------------------------------

 The number of warnings for this run is : 2
 
 -------------------------------------------------------------------------------
  **** **** ******  **  PROGRAM ENDED AT                 2022-09-04 20:01:14.050
 ***** ** ***  *** **   PROGRAM RAN ON             node1144.palmetto.clemson.edu
 **    ****   ******    PROGRAM RAN BY                                   xiutinc
 ***** **    ** ** **   PROGRAM PROCESS ID                               3875733
  **** **  *******  **  PROGRAM STOPPED IN    /scratch1/xiutinc/CP2K-97004.pbs02
