ITEM: TIMESTEP
5000000
ITEM: NUMBER OF ATOMS
4761
ITEM: BOX BOUNDS pp pp pp
0.0000000000000000e+00 2.4433001000000001e+01
0.0000000000000000e+00 2.4433001000000001e+01
0.0000000000000000e+00 8.6882897779454566e+01
ITEM: ATOMS id mol type q x y z 
1 1 1 -0.834 21.0575 23.0648 23.4471 
2 1 1 -0.834 22.7579 4.58174 49.8487 
3 1 1 -0.834 0.699806 23.3357 75.7371 
4 1 1 -0.834 19.2084 4.2731 22.1483 
5 1 1 -0.834 1.40656 4.10066 58.275 
6 1 1 -0.834 2.49705 14.5303 41.0198 
7 1 1 -0.834 6.88036 17.2162 82.1635 
8 1 1 -0.834 7.82681 22.7693 53.0635 
9 1 1 -0.834 1.26882 0.0160224 34.8169 
10 1 1 -0.834 9.61079 18.7622 16.3448 
11 1 1 -0.834 18.0484 20.2084 24.9047 
12 1 1 -0.834 10.1022 6.13798 25.2584 
13 1 1 -0.834 22.6553 14.8304 49.7808 
14 1 1 -0.834 23.8156 15.1251 44.8476 
15 1 1 -0.834 12.3087 16.0288 55.5221 
16 1 1 -0.834 11.1535 16.4584 76.8649 
17 1 1 -0.834 8.26154 17.6885 67.8579 
18 1 1 -0.834 17.5702 22.2452 50.5713 
19 1 1 -0.834 22.7916 5.99363 79.9098 
20 1 1 -0.834 23.736 2.51358 10.479 
21 1 1 -0.834 20.0531 15.5998 9.52428 
22 1 1 -0.834 9.53147 13.1175 26.6958 
23 1 1 -0.834 3.24318 8.03733 33.4139 
24 1 1 -0.834 17.5976 8.80441 77.5006 
25 1 1 -0.834 13.1581 9.58903 66.2506 
26 1 1 -0.834 16.7209 13.2318 65.7874 
27 1 1 -0.834 6.17571 10.74 4.5573 
28 1 1 -0.834 12.2802 21.6 47.0229 
29 1 1 -0.834 4.54161 6.25694 4.57034 
30 1 1 -0.834 19.0588 22.053 42.0663 
31 1 1 -0.834 7.75652 4.0964 71.3732 
32 1 1 -0.834 20.2285 12.4422 44.1958 
33 1 1 -0.834 24.0303 12.7178 40.1715 
34 1 1 -0.834 20.5233 15.3108 71.6383 
35 1 1 -0.834 4.77186 20.2211 44.6591 
36 1 1 -0.834 8.50204 12.8642 75.1618 
37 1 1 -0.834 16.6518 11.2178 58.9508 
38 1 1 -0.834 13.7484 24.3996 57.7901 
39 1 1 -0.834 18.0014 21.149 1.00777 
40 1 1 -0.834 17.9721 4.21527 64.6934 
41 1 1 -0.834 7.35455 21.5476 79.2513 
42 1 1 -0.834 8.68353 19.7777 19.3419 
43 1 1 -0.834 12.2268 17.5183 32.9177 
44 1 1 -0.834 10.1568 7.06905 30.4398 
45 1 1 -0.834 18.454 15.8132 62.4338 
46 1 1 -0.834 8.59444 18.4908 56.0505 
47 1 1 -0.834 21.8574 2.02149 60.1582 
48 1 1 -0.834 17.7588 7.87112 65.6189 
49 1 1 -0.834 23.5369 11.1514 12.3601 
50 1 1 -0.834 6.83113 7.94852 50.1555 
51 1 1 -0.834 12.8344 14.1183 5.34472 
52 1 1 -0.834 5.19692 22.0972 50.4915 
53 1 1 -0.834 6.52604 4.93491 28.7794 
54 1 1 -0.834 20.5406 18.1214 61.8702 
55 1 1 -0.834 3.72864 3.01181 32.4015 
56 1 1 -0.834 9.45823 20.7518 57.4696 
57 1 1 -0.834 19.4792 11.1437 11.0029 
58 1 1 -0.834 14.278 11.309 48.5603 
59 1 1 -0.834 16.143 12.4128 8.55158 
60 1 1 -0.834 9.05276 1.28934 61.2762 
61 1 1 -0.834 4.52837 8.51066 59.1036 
62 1 1 -0.834 17.3305 23.6958 21.1254 
63 1 1 -0.834 1.18551 3.92972 5.89346 
64 1 1 -0.834 12.9953 12.7558 33.0873 
65 1 1 -0.834 21.9108 9.83293 10.2107 
66 1 1 -0.834 13.8624 7.17678 20.3852 
67 1 1 -0.834 10.0992 15.9298 57.1098 
68 1 1 -0.834 4.84083 9.3371 46.0663 
69 1 1 -0.834 15.2477 4.87248 76.7507 
70 1 1 -0.834 10.9268 7.06693 4.80343 
71 1 1 -0.834 15.9157 6.34067 23.4 
72 1 1 -0.834 17.4614 17.1548 70.8827 
73 1 1 -0.834 12.0431 20.2101 64.5785 
74 1 1 -0.834 3.59587 0.678372 53.5448 
75 1 1 -0.834 9.99625 24.3972 64.2188 
76 1 1 -0.834 7.98884 20.0067 69.2126 
77 1 1 -0.834 18.2218 24.4021 65.9909 
78 1 1 -0.834 24.3713 0.100162 49.2834 
79 1 1 -0.834 17.1587 21.6182 69.7975 
80 1 1 -0.834 7.91786 5.69544 43.4019 
81 1 1 -0.834 10.4307 22.255 54.204 
82 1 1 -0.834 22.9111 4.58471 69.6438 
83 1 1 -0.834 18.6256 10.381 45.5496 
84 1 1 -0.834 3.29611 20.2401 83.8387 
85 1 1 -0.834 20.8139 23.676 48.5055 
86 1 1 -0.834 3.60502 2.47561 68.6823 
87 1 1 -0.834 21.0631 21.182 26.9044 
88 1 1 -0.834 2.24944 13.1116 58.4347 
89 1 1 -0.834 20.8248 12.8378 59.1716 
90 1 1 -0.834 13.5666 13.8073 70.6985 
91 1 1 -0.834 10.4163 16.2666 63.5587 
92 1 1 -0.834 22.2466 14.7098 52.6202 
93 1 1 -0.834 17.4535 18.0312 34.2997 
94 1 1 -0.834 7.14031 10.3184 45.2709 
95 1 1 -0.834 4.76841 7.58708 68.3307 
96 1 1 -0.834 14.3107 7.35952 43.6889 
97 1 1 -0.834 11.9191 3.98241 86.1505 
98 1 1 -0.834 21.8121 12.37 55.8995 
99 1 1 -0.834 1.77049 0.0157562 5.53848 
100 1 1 -0.834 11.7654 11.7147 27.4878 
101 1 1 -0.834 11.7044 24.237 72.4798 
102 1 1 -0.834 22.7345 14.7896 56.8543 
103 1 1 -0.834 8.85053 7.4199 78.1322 
104 1 1 -0.834 5.7474 14.7648 63.1562 
105 1 1 -0.834 3.01027 0.932849 29.6374 
106 1 1 -0.834 20.6268 3.53958 75.3644 
107 1 1 -0.834 4.74544 14.1052 59.8452 
108 1 1 -0.834 7.44357 14.4296 70.7715 
109 1 1 -0.834 17.1784 16.2625 47.5283 
110 1 1 -0.834 23.946 11.4377 74.2409 
111 1 1 -0.834 5.9504 17.825 45.7059 
112 1 1 -0.834 1.65537 19.1418 70.0864 
113 1 1 -0.834 8.07858 17.4877 79.1569 
114 1 1 -0.834 12.6562 23.3441 70.0207 
115 1 1 -0.834 20.6844 10.4856 77.1631 
116 1 1 -0.834 0.126643 18.0551 83.6135 
117 1 1 -0.834 1.13906 4.48128 74.6931 
118 1 1 -0.834 12.6802 18.4601 8.7922 
119 1 1 -0.834 2.88732 5.3246 68.1238 
120 1 1 -0.834 0.97426 13.3036 16.8897 
121 1 1 -0.834 11.8945 3.10841 19.7907 
122 1 1 -0.834 16.3632 17.0922 63.3543 
123 1 1 -0.834 17.2204 1.1355 68.3081 
124 1 1 -0.834 3.59476 21.9019 41.6059 
125 1 1 -0.834 19.2274 4.73211 71.7209 
126 1 1 -0.834 10.6926 17.7892 79.7045 
127 1 1 -0.834 2.31456 0.802597 61.5473 
128 1 1 -0.834 23.3569 12.5789 15.0782 
129 1 1 -0.834 17.7389 20.1613 54.5344 
130 1 1 -0.834 13.0708 9.39802 76.3702 
131 1 1 -0.834 3.36068 23.8042 65.9283 
132 1 1 -0.834 8.26472 24.1166 79.9637 
133 1 1 -0.834 0.18892 2.09885 65.0551 
134 1 1 -0.834 4.41547 8.99529 2.88439 
135 1 1 -0.834 2.85689 12.6432 75.0536 
136 1 1 -0.834 18.7903 1.13134 78.9748 
137 1 1 -0.834 10.3229 21.3041 35.4451 
138 1 1 -0.834 15.5947 4.54219 73.9706 
139 1 1 -0.834 10.1731 7.62844 22.7997 
140 1 1 -0.834 23.6658 11.6431 67.9212 
141 1 1 -0.834 2.33193 19.0607 59.0609 
142 1 1 -0.834 6.79439 15.2273 77.2822 
143 1 1 -0.834 12.859 3.22446 76.7143 
144 1 1 -0.834 17.8098 19.5401 78.8254 
145 1 1 -0.834 11.199 6.50424 55.4342 
146 1 1 -0.834 10.0554 6.54679 59.6772 
147 1 1 -0.834 22.6339 21.2161 65.1419 
148 1 1 -0.834 1.48446 9.96282 38.488 
149 1 1 -0.834 20.9312 18.3855 54.0633 
150 1 1 -0.834 20.6825 6.612 81.4909 
151 1 1 -0.834 21.5691 15.5802 61.0507 
152 1 1 -0.834 22.1695 2.68184 64.611 
153 1 1 -0.834 16.0439 10.0536 45.1739 
154 1 1 -0.834 9.16246 17.333 74.0316 
155 1 1 -0.834 9.91046 10.5462 42.1063 
156 1 1 -0.834 22.612 17.4307 3.70401 
157 1 1 -0.834 14.0976 3.99773 80.6688 
158 1 1 -0.834 6.89501 3.27965 74.1468 
159 1 1 -0.834 11.8381 19.8284 41.2163 
160 1 1 -0.834 2.6956 7.26358 53.2476 
161 1 1 -0.834 20.6118 19.2327 6.25965 
162 1 1 -0.834 8.9076 17.3104 13.7218 
163 1 1 -0.834 6.87939 5.94899 63.4861 
164 1 1 -0.834 11.7549 8.21172 42.4515 
165 1 1 -0.834 22.8433 0.522806 4.96011 
166 1 1 -0.834 19.0738 19.7228 71.1578 
167 1 1 -0.834 20.8267 8.47129 79.0956 
168 1 1 -0.834 9.95323 19.3893 37.7125 
169 1 1 -0.834 9.65042 12.6831 29.3658 
170 1 1 -0.834 12.4161 22.8679 19.7009 
171 1 1 -0.834 15.5071 15.7863 55.0383 
172 1 1 -0.834 16.8723 22.4054 43.7403 
173 1 1 -0.834 16.2392 3.91884 58.1699 
174 1 1 -0.834 0.200372 11.0193 60.8525 
175 1 1 -0.834 6.92909 6.53432 25.8228 
176 1 1 -0.834 11.8068 19.2284 48.7035 
177 1 1 -0.834 24.0795 10.1279 76.8173 
178 1 1 -0.834 4.44606 23.1773 46.14 
179 1 1 -0.834 6.84081 11.7053 29.9405 
180 1 1 -0.834 16.9154 7.62223 70.6096 
181 1 1 -0.834 16.865 6.50956 82.6444 
182 1 1 -0.834 21.2534 2.39134 46.2068 
183 1 1 -0.834 13.2641 4.82455 43.706 
184 1 1 -0.834 24.2397 15.2386 18.4453 
185 1 1 -0.834 15.4779 13.6936 58.4587 
186 1 1 -0.834 19.7396 22.4062 61.94 
187 1 1 -0.834 9.53537 7.80312 41.1203 
188 1 1 -0.834 16.373 13.7621 31.0263 
189 1 1 -0.834 5.30958 10.2198 0.471906 
190 1 1 -0.834 11.4642 23.4791 36.913 
191 1 1 -0.834 17.8483 14.6448 57.7053 
192 1 1 -0.834 0.498725 12.0746 21.4611 
193 1 1 -0.834 18.9594 11.6768 63.0484 
194 1 1 -0.834 16.4111 5.79592 41.5861 
195 1 1 -0.834 9.95841 5.64338 69.9851 
196 1 1 -0.834 13.9502 15.8891 12.0854 
197 1 1 -0.834 18.0969 22.4758 23.4587 
198 1 1 -0.834 7.78895 11.0633 48.1905 
199 1 1 -0.834 14.2445 16.3871 45.1513 
200 1 1 -0.834 7.48432 8.28745 4.91349 
201 1 1 -0.834 12.9633 23.7602 77.7631 
202 1 1 -0.834 8.5406 8.6352 26.2604 
203 1 1 -0.834 22.7147 0.629008 76.514 
204 1 1 -0.834 22.2102 3.15676 67.5197 
205 1 1 -0.834 10.9445 9.68502 52.925 
206 1 1 -0.834 22.4193 23.4517 60.2744 
207 1 1 -0.834 3.8949 5.61662 60.0389 
208 1 1 -0.834 23.2562 11.5378 18.878 
209 1 1 -0.834 10.9632 5.21888 1.61521 
210 1 1 -0.834 1.05945 16.951 20.3257 
211 1 1 -0.834 3.43085 2.69357 76.0829 
212 1 1 -0.834 11.5662 12.1349 72.3303 
213 1 1 -0.834 9.47099 6.97904 86.0234 
214 1 1 -0.834 9.90122 21.7292 72.2899 
215 1 1 -0.834 23.4077 0.585419 79.5513 
216 1 1 -0.834 1.68716 22.0026 48.4943 
217 1 1 -0.834 15.0959 20.0619 56.7834 
218 1 1 -0.834 14.8742 20.9036 42.015 
219 1 1 -0.834 17.3447 7.68745 14.4697 
220 1 1 -0.834 12.9531 23.0029 41.7739 
221 1 1 -0.834 20.8502 1.38367 52.6287 
222 1 1 -0.834 22.1426 14.2471 75.9078 
223 1 1 -0.834 11.7124 0.450255 18.027 
224 1 1 -0.834 17.0035 3.20945 48.375 
225 1 1 -0.834 14.7703 15.5367 79.1381 
226 1 1 -0.834 2.04394 13.3124 23.5059 
227 1 1 -0.834 8.69394 0.529271 77.028 
228 1 1 -0.834 12.6123 16.7242 47.859 
229 1 1 -0.834 20.2831 5.67692 39.563 
230 1 1 -0.834 6.43924 4.52274 49.1623 
231 1 1 -0.834 11.9752 8.06552 61.3671 
232 1 1 -0.834 16.4851 8.35109 39.2345 
233 1 1 -0.834 17.9203 17.4192 55.763 
234 1 1 -0.834 10.4687 20.37 70.0427 
235 1 1 -0.834 18.8836 7.70292 46.1331 
236 1 1 -0.834 20.0119 15.5055 66.8968 
237 1 1 -0.834 7.5271 0.914613 34.9914 
238 1 1 -0.834 6.11895 18.4906 54.7338 
239 1 1 -0.834 14.945 8.05375 78.3327 
240 1 1 -0.834 1.6503 6.2898 12.9761 
241 1 1 -0.834 15.8523 6.78833 61.2063 
242 1 1 -0.834 23.593 22.0081 49.5541 
243 1 1 -0.834 12.3855 18.4426 53.789 
244 1 1 -0.834 19.6675 20.707 66.0482 
245 1 1 -0.834 7.83145 9.56182 59.6056 
246 1 1 -0.834 16.8839 11.6774 11.8989 
247 1 1 -0.834 22.0739 20.4552 72.5792 
248 1 1 -0.834 16.7332 17.2172 58.2888 
249 1 1 -0.834 0.249681 14.0299 74.7659 
250 1 1 -0.834 18.3189 13.0808 52.7481 
251 1 1 -0.834 16.8427 12.7777 50.5745 
252 1 1 -0.834 11.45 19.3662 77.6673 
253 1 1 -0.834 5.76748 2.12331 54.6875 
254 1 1 -0.834 21.2163 9.10574 53.0601 
255 1 1 -0.834 20.6093 23.503 30.4994 
256 1 1 -0.834 14.0117 7.5113 85.6099 
257 1 1 -0.834 3.80566 0.283743 80.3777 
258 1 1 -0.834 2.01845 6.44124 36.2415 
259 1 1 -0.834 6.08358 13.0221 54.1695 
260 1 1 -0.834 0.30902 13.4174 55.0133 
261 1 1 -0.834 22.2237 5.33816 16.3304 
262 1 1 -0.834 12.1944 19.0765 16.9719 
263 1 1 -0.834 19.9835 19.7778 3.60116 
264 1 1 -0.834 9.39784 23.3759 56.4587 
265 1 1 -0.834 10.585 18.2736 51.6619 
266 1 1 -0.834 2.87255 16.7496 44.511 
267 1 1 -0.834 7.74398 12.4664 43.0182 
268 1 1 -0.834 3.59412 3.96937 35.6773 
269 1 1 -0.834 20.0599 2.33239 82.6027 
270 1 1 -0.834 2.11829 23.4448 71.3532 
271 1 1 -0.834 21.9618 1.92543 55.266 
272 1 1 -0.834 8.92753 13.4269 3.51996 
273 1 1 -0.834 1.18017 15.6302 24.7976 
274 1 1 -0.834 4.01509 16.3794 25.2356 
275 1 1 -0.834 15.3386 1.88632 50.3017 
276 1 1 -0.834 4.88848 1.52274 8.9433 
277 1 1 -0.834 7.24454 0.609171 15.5277 
278 1 1 -0.834 8.90815 4.6575 54.7077 
279 1 1 -0.834 23.0517 18.9119 75.9298 
280 1 1 -0.834 3.27856 22.8751 33.3755 
281 1 1 -0.834 15.4474 5.54293 63.8951 
282 1 1 -0.834 9.5799 22.7205 68.8751 
283 1 1 -0.834 21.4495 0.251108 0.88899 
284 1 1 -0.834 20.3609 3.32843 78.1317 
285 1 1 -0.834 17.9579 1.5213 53.1482 
286 1 1 -0.834 4.96473 9.75604 48.6371 
287 1 1 -0.834 19.6423 23.4564 53.8048 
288 1 1 -0.834 11.7429 7.80146 45.2982 
289 1 1 -0.834 5.33527 10.1888 28.0176 
290 1 1 -0.834 11.537 4.70904 53.206 
291 1 1 -0.834 6.38253 23.5397 75.9147 
292 1 1 -0.834 9.9107 14.2086 71.9477 
293 1 1 -0.834 1.12546 21.0007 57.1331 
294 1 1 -0.834 21.1311 9.32589 61.8453 
295 1 1 -0.834 24.086 23.122 29.0299 
296 1 1 -0.834 4.93394 5.41554 44.3467 
297 1 1 -0.834 2.034 9.48013 63.5691 
298 1 1 -0.834 9.84631 1.1234 50.5185 
299 1 1 -0.834 23.1919 8.05549 13.0845 
300 1 1 -0.834 5.22043 19.6884 48.4101 
301 1 1 -0.834 9.08394 4.85228 65.0063 
302 1 1 -0.834 12.1212 10.7005 79.059 
303 1 1 -0.834 23.4361 2.66516 7.64077 
304 1 1 -0.834 15.6043 19.8371 8.80112 
305 1 1 -0.834 3.37907 14.2731 72.6421 
306 1 1 -0.834 11.3473 13.5557 76.5749 
307 1 1 -0.834 19.2574 18.3283 64.1631 
308 1 1 -0.834 13.5888 20.0495 51.2291 
309 1 1 -0.834 9.54176 15.5358 42.3773 
310 1 1 -0.834 14.154 17.0278 35.4931 
311 1 1 -0.834 0.446292 23.0704 64.3529 
312 1 1 -0.834 15.3144 12.1149 74.1452 
313 1 1 -0.834 4.77579 16.0429 57.7991 
314 1 1 -0.834 19.9442 8.38767 72.6727 
315 1 1 -0.834 1.61817 21.5156 52.504 
316 1 1 -0.834 15.4034 18.5176 30.791 
317 1 1 -0.834 10.873 10.8612 30.7949 
318 1 1 -0.834 10.129 3.76264 47.4951 
319 1 1 -0.834 14.448 2.24823 62.146 
320 1 1 -0.834 7.42558 18.6253 49.8107 
321 1 1 -0.834 6.11639 23.1572 55.0075 
322 1 1 -0.834 15.9909 13.3308 71.9033 
323 1 1 -0.834 14.2702 22.1848 54.6062 
324 1 1 -0.834 6.61198 15.0758 67.1545 
325 1 1 -0.834 21.0102 6.76152 18.5312 
326 1 1 -0.834 15.9624 3.06891 53.8271 
327 1 1 -0.834 6.6661 19.488 13.0593 
328 1 1 -0.834 5.75799 6.39673 33.1692 
329 1 1 -0.834 7.3957 11.8141 50.9448 
330 1 1 -0.834 3.53075 7.57189 8.04765 
331 1 1 -0.834 8.67761 8.19956 44.1425 
332 1 1 -0.834 9.7615 5.99201 45.8846 
333 1 1 -0.834 18.6477 1.78887 55.9388 
334 1 1 -0.834 4.96778 9.8784 64.1237 
335 1 1 -0.834 16.2077 0.540077 23.6973 
336 1 1 -0.834 13.4912 9.8061 62.9249 
337 1 1 -0.834 5.19882 14.3499 0.713399 
338 1 1 -0.834 15.8945 23.2729 81.9485 
339 1 1 -0.834 2.85689 3.61723 28.9587 
340 1 1 -0.834 4.54617 17.9395 70.0824 
341 1 1 -0.834 11.8131 9.03082 24.914 
342 1 1 -0.834 22.2693 8.77376 19.6512 
343 1 1 -0.834 12.8754 14.5352 35.4783 
344 1 1 -0.834 16.0227 19.0727 6.13218 
345 1 1 -0.834 2.86811 8.27795 70.9896 
346 1 1 -0.834 5.06581 10.8873 43.4022 
347 1 1 -0.834 12.8206 11.9563 60.0882 
348 1 1 -0.834 2.1615 6.22956 9.81778 
349 1 1 -0.834 2.84285 11.8371 61.0296 
350 1 1 -0.834 16.7376 2.44154 60.4915 
351 1 1 -0.834 2.8327 20.8588 78.0015 
352 1 1 -0.834 18.1345 22.8123 72.2292 
353 1 1 -0.834 3.36813 18.2313 61.7219 
354 1 1 -0.834 9.01487 24.0392 17.5181 
355 1 1 -0.834 6.53883 22.4432 69.0441 
356 1 1 -0.834 20.0666 10.2219 18.9361 
357 1 1 -0.834 4.9685 17.3634 65.7078 
358 1 1 -0.834 17.4813 9.90472 16.2162 
359 1 1 -0.834 4.64094 3.01134 57.5369 
360 1 1 -0.834 4.01875 3.52763 81.2324 
361 1 1 -0.834 14.1197 1.08033 72.3521 
362 1 1 -0.834 3.87672 5.24911 11.9907 
363 1 1 -0.834 20.7496 0.532229 57.3566 
364 1 1 -0.834 1.52717 3.59716 82.2838 
365 1 1 -0.834 8.38749 17.1731 59.0534 
366 1 1 -0.834 0.297421 21.1364 27.3789 
367 1 1 -0.834 19.7735 21.1171 31.354 
368 1 1 -0.834 17.1939 11.2822 56.086 
369 1 1 -0.834 4.06626 22.4429 53.2713 
370 1 1 -0.834 14.6302 11.0651 34.5467 
371 1 1 -0.834 8.78241 16.5993 52.7206 
372 1 1 -0.834 6.80607 22.1788 18.12 
373 1 1 -0.834 15.7398 14.935 28.4964 
374 1 1 -0.834 22.519 8.67245 40.0546 
375 1 1 -0.834 2.35723 18.3451 66.3894 
376 1 1 -0.834 11.4443 16.2837 10.802 
377 1 1 -0.834 22.1278 19.8199 85.5551 
378 1 1 -0.834 7.95494 22.0623 64.2185 
379 1 1 -0.834 6.94602 1.72615 37.5935 
380 1 1 -0.834 14.7873 21.5618 59.264 
381 1 1 -0.834 5.63679 18.1486 78.6374 
382 1 1 -0.834 13.0309 14.6912 74.4961 
383 1 1 -0.834 12.8907 6.74401 23.0616 
384 1 1 -0.834 9.13183 13.5388 78.1159 
385 1 1 -0.834 16.2484 15.1473 33.5138 
386 1 1 -0.834 19.3286 6.39366 60.7601 
387 1 1 -0.834 23.9223 18.811 66.1963 
388 1 1 -0.834 6.05451 18.1878 62.9203 
389 1 1 -0.834 2.83637 1.45166 64.2788 
390 1 1 -0.834 14.7537 15.5181 8.30037 
391 1 1 -0.834 4.28143 13.8768 78.2106 
392 1 1 -0.834 3.45754 11.1861 84.174 
393 1 1 -0.834 12.9403 20.9573 72.4923 
394 1 1 -0.834 4.56897 16.9195 72.7004 
395 1 1 -0.834 1.32973 7.49825 68.8699 
396 1 1 -0.834 0.425775 3.27636 51.387 
397 1 1 -0.834 16.8061 22.0866 3.3935 
398 1 1 -0.834 12.7819 3.38283 46.1951 
399 1 1 -0.834 11.0411 11.6996 24.8539 
400 1 1 -0.834 5.46761 5.11199 52.7649 
401 1 1 -0.834 23.3325 4.00525 34.8489 
402 1 1 -0.834 1.73923 0.911486 78.7942 
403 1 1 -0.834 18.3146 11.3445 80.22 
404 1 1 -0.834 9.29007 12.7114 46.6691 
405 1 1 -0.834 8.73406 1.85401 66.2544 
406 1 1 -0.834 21.7939 16.3605 73.9105 
407 1 1 -0.834 3.06011 3.60464 45.3843 
408 1 1 -0.834 23.1221 4.00291 47.2794 
409 1 1 -0.834 22.3643 7.80088 50.1003 
410 1 1 -0.834 23.1618 16.5739 23.84 
411 1 1 -0.834 14.7816 4.72771 51.6364 
412 1 1 -0.834 10.5744 0.43831 53.069 
413 1 1 -0.834 14.1005 12.1906 45.5835 
414 1 1 -0.834 9.61345 0.519179 14.5101 
415 1 1 -0.834 3.08056 12.3532 19.1402 
416 1 1 -0.834 14.9523 4.13764 25.4691 
417 1 1 -0.834 21.0656 10.8335 69.6533 
418 1 1 -0.834 0.110171 0.301655 54.1991 
419 1 1 -0.834 2.63156 20.8816 67.0576 
420 1 1 -0.834 7.47362 22.5623 13.045 
421 1 1 -0.834 7.56365 2.41968 50.697 
422 1 1 -0.834 21.0723 9.86328 48.1908 
423 1 1 -0.834 20.8284 23.0459 5.57599 
424 1 1 -0.834 10.585 8.91064 74.1102 
425 1 1 -0.834 18.9621 6.35623 12.5618 
426 1 1 -0.834 10.4997 13.4292 65.7167 
427 1 1 -0.834 16.3786 13.7809 62.9381 
428 1 1 -0.834 11.3012 24.149 75.6534 
429 1 1 -0.834 8.38639 14.2309 63.6103 
430 1 1 -0.834 14.6372 10.2913 51.0659 
431 1 1 -0.834 23.4756 22.182 53.4767 
432 1 1 -0.834 5.52319 13.2614 75.3647 
433 1 1 -0.834 14.38 4.78755 55.4606 
434 1 1 -0.834 21.2431 15.8357 54.9072 
435 1 1 -0.834 5.3336 9.75831 70.3611 
436 1 1 -0.834 3.04352 0.924776 45.285 
437 1 1 -0.834 7.61919 8.11965 57.2253 
438 1 1 -0.834 16.9292 21.7152 27.3212 
439 1 1 -0.834 6.59665 1.89485 68.2869 
440 1 1 -0.834 6.74086 6.35745 59.0064 
441 1 1 -0.834 1.01254 15.0747 0.201434 
442 1 1 -0.834 2.73209 13.0622 53.7642 
443 1 1 -0.834 13.3384 8.28304 54.1337 
444 1 1 -0.834 22.3781 21.422 77.6141 
445 1 1 -0.834 14.8401 18.0316 77.3203 
446 1 1 -0.834 20.9344 9.54935 67.1969 
447 1 1 -0.834 1.95349 19.9774 43.608 
448 1 1 -0.834 6.74825 20.4382 42.6891 
449 1 1 -0.834 3.10473 3.35263 14.1973 
450 1 1 -0.834 22.6821 0.979021 29.7309 
451 1 1 -0.834 6.12133 23.1628 36.3265 
452 1 1 -0.834 22.9023 13.0285 81.3987 
453 1 1 -0.834 19.069 20.9101 74.5095 
454 1 1 -0.834 3.56331 12.9694 63.4959 
455 1 1 -0.834 17.13 3.50298 83.269 
456 1 1 -0.834 19.9824 0.674555 62.042 
457 1 1 -0.834 0.9357 5.49748 30.5734 
458 1 1 -0.834 20.2407 18.576 73.6204 
459 1 1 -0.834 3.72616 23.238 56.6689 
460 1 1 -0.834 19.7739 12.3407 50.1006 
461 1 1 -0.834 21.4226 5.77338 73.3026 
462 1 1 -0.834 17.1758 17.0962 36.7609 
463 1 1 -0.834 8.88634 2.91674 42.6029 
464 1 1 -0.834 8.10426 19.5603 65.2882 
465 1 1 -0.834 13.494 20.2264 61.5723 
466 1 1 -0.834 4.3979 0.648134 37.4035 
467 1 1 -0.834 4.58083 14.6212 70.1324 
468 1 1 -0.834 24.4128 17.5078 58.4062 
469 1 1 -0.834 7.90359 3.21875 10.0703 
470 1 1 -0.834 5.16051 12.4313 47.4187 
471 1 1 -0.834 9.42687 10.4625 76.296 
472 1 1 -0.834 3.87138 23.9367 48.9679 
473 1 1 -0.834 22.8417 19.2097 47.5877 
474 1 1 -0.834 1.61755 5.24367 49.3482 
475 1 1 -0.834 21.8845 19.1946 42.0416 
476 1 1 -0.834 13.7108 22.7733 74.793 
477 1 1 -0.834 18.3529 4.50523 74.2035 
478 1 1 -0.834 13.7676 15.6528 31.6935 
479 1 1 -0.834 14.2659 1.43546 75.4177 
480 1 1 -0.834 13.2008 5.7757 61.4614 
481 1 1 -0.834 13.6316 11.0818 68.8141 
482 1 1 -0.834 19.9806 0.117354 42.9744 
483 1 1 -0.834 12.3331 22.1449 56.3961 
484 1 1 -0.834 0.334476 11.4779 65.5326 
485 1 1 -0.834 20.003 16.6227 57.4403 
486 1 1 -0.834 22.371 6.64686 60.6959 
487 1 1 -0.834 4.76834 20.7083 38.9523 
488 1 1 -0.834 19.8719 16.6654 76.9318 
489 1 1 -0.834 3.01942 6.67784 75.3863 
490 1 1 -0.834 20.8985 10.3469 74.3011 
491 1 1 -0.834 22.5009 7.04539 10.6902 
492 1 1 -0.834 1.95265 18.33 52.6888 
493 1 1 -0.834 8.04466 23.0884 49.7949 
494 1 1 -0.834 19.0186 10.2689 35.9232 
495 1 1 -0.834 15.4392 20.32 45.9942 
496 1 1 -0.834 5.60645 0.741658 64.3173 
497 1 1 -0.834 11.1388 3.91002 81.9531 
498 1 1 -0.834 5.4366 5.76268 74.5725 
499 1 1 -0.834 12.1801 1.25597 65.926 
500 1 1 -0.834 4.74296 14.6837 42.7792 
501 1 1 -0.834 0.462132 5.20547 66.2909 
502 1 1 -0.834 3.38112 6.18379 46.6356 
503 1 1 -0.834 3.3918 13.8962 51.0821 
504 1 1 -0.834 2.45661 9.47717 55.4283 
505 1 1 -0.834 16.8979 16.9398 10.1883 
506 1 1 -0.834 2.1178 10.0564 75.7204 
507 1 1 -0.834 13.982 9.07885 46.7178 
508 1 1 -0.834 9.70761 12.3911 68.7145 
509 1 1 -0.834 18.1207 19.8584 46.2847 
510 1 1 -0.834 20.7192 23.7387 77.9681 
511 1 1 -0.834 6.84387 9.20387 30.8809 
512 1 1 -0.834 22.517 20.3584 30.8594 
513 1 1 -0.834 15.8251 9.01994 63.9888 
514 1 1 -0.834 6.72981 14.4065 51.6729 
515 1 1 -0.834 1.15549 23.7562 56.9399 
516 1 1 -0.834 16.3739 3.47626 78.8502 
517 1 1 -0.834 11.6207 18.1964 43.4261 
518 1 1 -0.834 9.85294 7.64898 68.0784 
519 1 1 -0.834 12.3242 7.01607 58.1572 
520 1 1 -0.834 20.0191 11.5912 16.6727 
521 1 1 -0.834 18.0483 17.9021 75.0435 
522 1 1 -0.834 20.6073 10.0611 56.742 
523 1 1 -0.834 19.1633 23.218 85.4243 
524 1 1 -0.834 22.7384 19.1029 63.4615 
525 1 1 -0.834 6.19539 11.4888 84.3985 
526 1 1 -0.834 5.9938 14.1256 23.6454 
527 1 1 -0.834 3.24069 13.7598 85.6351 
528 1 1 -0.834 6.66905 16.6112 42.897 
529 1 1 -0.834 8.8703 15.3532 45.9463 
530 1 1 -0.834 21.2248 1.79146 3.13422 
531 1 1 -0.834 1.50951 13.6941 67.3328 
532 1 1 -0.834 2.85197 3.0449 38.1695 
533 1 1 -0.834 12.4774 9.54285 56.5427 
534 1 1 -0.834 10.3904 8.67202 64.6402 
535 1 1 -0.834 2.04568 17.4542 78.0461 
536 1 1 -0.834 7.19043 14.8716 57.5661 
537 1 1 -0.834 13.4522 1.96239 0.160329 
538 1 1 -0.834 21.0075 21.1757 54.8605 
539 1 1 -0.834 2.8898 2.33039 59.6147 
540 1 1 -0.834 12.338 15.7103 69.1683 
541 1 1 -0.834 1.23909 24.2436 51.7737 
542 1 1 -0.834 16.9183 22.631 53.8721 
543 1 1 -0.834 15.035 22.5117 71.5205 
544 1 1 -0.834 8.86249 21.4537 10.1998 
545 1 1 -0.834 9.52145 7.90661 71.7599 
546 1 1 -0.834 5.3827 9.79156 66.8251 
547 1 1 -0.834 23.6951 9.84526 15.64 
548 1 1 -0.834 7.14381 5.7475 3.5508 
549 1 1 -0.834 11.6783 13.5618 53.9903 
550 1 1 -0.834 1.03159 1.68709 75.7718 
551 1 1 -0.834 20.2751 0.114632 25.8745 
552 1 1 -0.834 22.6016 20.433 51.7424 
553 1 1 -0.834 8.53913 23.9145 44.0769 
554 1 1 -0.834 0.041379 8.8543 48.3668 
555 1 1 -0.834 9.95319 10.5116 70.9656 
556 1 1 -0.834 14.0371 16.8356 57.4508 
557 1 1 -0.834 15.8008 14.9565 37.9304 
558 1 1 -0.834 17.4715 8.63236 80.3265 
559 1 1 -0.834 16.9075 12.5637 46.8126 
560 1 1 -0.834 23.4313 16.7066 64.3595 
561 1 1 -0.834 6.68118 3.34773 44.9899 
562 1 1 -0.834 12.0483 4.00456 56.9552 
563 1 1 -0.834 3.31293 10.3501 72.8717 
564 1 1 -0.834 21.7073 12.1125 61.6361 
565 1 1 -0.834 5.13704 8.36798 52.3596 
566 1 1 -0.834 18.7373 18.87 27.6475 
567 1 1 -0.834 21.8133 13.8505 45.808 
568 1 1 -0.834 7.27537 22.8381 72.4105 
569 1 1 -0.834 10.1383 2.71768 76.3917 
570 1 1 -0.834 1.88812 21.2704 2.88163 
571 1 1 -0.834 12.1589 5.48453 73.5793 
572 1 1 -0.834 5.34994 2.7459 70.8475 
573 1 1 -0.834 11.067 2.31294 22.1403 
574 1 1 -0.834 1.16547 20.5766 46.266 
575 1 1 -0.834 21.0201 4.84033 13.7797 
576 1 1 -0.834 3.70294 22.1811 73.0715 
577 1 1 -0.834 17.9359 6.45648 76.2452 
578 1 1 -0.834 7.27916 9.83075 41.4944 
579 1 1 -0.834 4.70983 19.8251 80.6933 
580 1 1 -0.834 5.14363 19.6976 17.8846 
581 1 1 -0.834 5.8214 7.36207 79.2338 
582 1 1 -0.834 20.7584 7.11218 54.8776 
583 1 1 -0.834 13.7861 11.0605 30.0789 
584 1 1 -0.834 1.30566 17.5642 55.2208 
585 1 1 -0.834 1.3726 15.2899 57.1827 
586 1 1 -0.834 18.7628 10.7048 71.3874 
587 1 1 -0.834 20.4842 24.22 45.5582 
588 1 1 -0.834 23.0583 10.3404 71.6611 
589 1 1 -0.834 6.99742 7.33438 75.7766 
590 1 1 -0.834 3.32508 5.62321 71.8813 
591 1 1 -0.834 13.7229 6.33492 46.8635 
592 1 1 -0.834 13.1065 16.2594 51.5329 
593 1 1 -0.834 16.5203 23.2201 74.4222 
594 1 1 -0.834 8.50841 1.91272 58.7049 
595 1 1 -0.834 6.56575 21.2675 59.8519 
596 1 1 -0.834 16.7751 20.8104 75.9567 
597 1 1 -0.834 24.2034 3.46722 56.0082 
598 1 1 -0.834 17.0635 4.36043 45.8614 
599 1 1 -0.834 3.94652 0.653516 12.512 
600 1 1 -0.834 14.198 1.46276 79.3272 
601 1 1 -0.834 10.5838 9.07238 28.0296 
602 1 1 -0.834 14.9789 22.1102 63.1862 
603 1 1 -0.834 15.1241 6.68041 72.3358 
604 1 1 -0.834 5.6928 9.94581 56.1436 
605 1 1 -0.834 11.5996 14.9068 45.267 
606 1 1 -0.834 9.02682 10.442 5.75059 
607 1 1 -0.834 2.31302 8.58172 60.7551 
608 1 1 -0.834 14.6611 14.3456 67.1751 
609 1 1 -0.834 6.40934 5.98583 69.9041 
610 1 1 -0.834 13.8587 2.04785 23.7463 
611 1 1 -0.834 7.22895 17.4624 18.161 
612 1 1 -0.834 23.749 2.24939 62.0255 
613 1 1 -0.834 6.89684 21.9542 47.0806 
614 1 1 -0.834 22.5934 6.00504 37.9677 
615 1 1 -0.834 0.388881 16.0352 52.4308 
616 1 1 -0.834 15.2418 5.10245 86.626 
617 1 1 -0.834 22.3468 6.69795 44.1654 
618 1 1 -0.834 5.50628 0.12955 70.6142 
619 1 1 -0.834 22.6503 23.9158 62.9456 
620 1 1 -0.834 14.7174 22.6653 21.4064 
621 1 1 -0.834 19.7242 21.2016 52.1029 
622 1 1 -0.834 10.0997 0.318089 39.1003 
623 1 1 -0.834 4.77561 14.7524 18.3057 
624 1 1 -0.834 5.16099 20.6377 63.6616 
625 1 1 -0.834 11.0861 16.7174 35.6173 
626 1 1 -0.834 13.3241 5.24046 68.0529 
627 1 1 -0.834 2.86395 4.37767 78.1154 
628 1 1 -0.834 21.7975 12.5887 48.2566 
629 1 1 -0.834 22.452 1.53333 50.4964 
630 1 1 -0.834 14.0208 24.1607 60.5282 
631 1 1 -0.834 2.7147 8.74861 42.1939 
632 1 1 -0.834 3.07848 15.1007 16.2364 
633 1 1 -0.834 13.1175 20.2599 44.5008 
634 1 1 -0.834 19.5381 13.6281 75.9904 
635 1 1 -0.834 1.74429 23.0362 30.886 
636 1 1 -0.834 0.293005 16.4899 69.7219 
637 1 1 -0.834 8.22002 13.2456 59.3829 
638 1 1 -0.834 6.68352 14.0016 44.956 
639 1 1 -0.834 13.3428 3.64149 71.9131 
640 1 1 -0.834 7.03782 6.18725 46.8161 
641 1 1 -0.834 16.785 14.6698 11.8062 
642 1 1 -0.834 17.187 0.0958909 62.7316 
643 1 1 -0.834 22.2108 0.0360176 67.6979 
644 1 1 -0.834 21.8911 13.4813 69.8478 
645 1 1 -0.834 5.74445 12.8445 20.2053 
646 1 1 -0.834 18.9116 1.53854 20.1932 
647 1 1 -0.834 18.4199 4.97529 80.9793 
648 1 1 -0.834 9.4106 8.00587 51.3495 
649 1 1 -0.834 22.3948 15.8889 78.2338 
650 1 1 -0.834 22.2506 6.10435 66.3998 
651 1 1 -0.834 9.19378 5.11305 49.6033 
652 1 1 -0.834 23.2157 19.726 22.8771 
653 1 1 -0.834 24.0267 14.2419 59.3989 
654 1 1 -0.834 10.7234 14.2777 48.853 
655 1 1 -0.834 4.34125 16.9587 47.6754 
656 1 1 -0.834 15.532 18.7854 68.97 
657 1 1 -0.834 7.68273 12.5678 66.9235 
658 1 1 -0.834 23.3037 6.05544 41.1499 
659 1 1 -0.834 21.0387 15.0142 42.5383 
660 1 1 -0.834 12.367 20.4079 13.8448 
661 1 1 -0.834 4.93304 16.6118 22.6385 
662 1 1 -0.834 2.87143 16.4948 68.4717 
663 1 1 -0.834 14.5083 11.1551 10.1916 
664 1 1 -0.834 18.8656 1.48665 1.54736 
665 1 1 -0.834 5.91519 3.68609 59.9565 
666 1 1 -0.834 14.0896 9.4587 27.1996 
667 1 1 -0.834 15.4829 12.6356 80.3486 
668 1 1 -0.834 1.63302 7.0432 56.3612 
669 1 1 -0.834 4.56806 11.2081 50.7966 
670 1 1 -0.834 14.6031 19.2957 33.363 
671 1 1 -0.834 17.7935 0.491354 58.3658 
672 1 1 -0.834 19.9831 5.91375 63.5345 
673 1 1 -0.834 14.2584 6.9925 82.0417 
674 1 1 -0.834 9.64853 9.05542 2.96459 
675 1 1 -0.834 16.7708 12.9673 77.8983 
676 1 1 -0.834 9.56881 21.2335 48.8198 
677 1 1 -0.834 5.87078 12.1279 69.399 
678 1 1 -0.834 19.4262 18.3675 51.6983 
679 1 1 -0.834 23.1007 21.6052 24.9288 
680 1 1 -0.834 23.0723 10.0036 46.129 
681 1 1 -0.834 8.49893 17.0568 40.1061 
682 1 1 -0.834 9.97511 21.6043 77.9616 
683 1 1 -0.834 1.60614 1.76551 47.5843 
684 1 1 -0.834 10.4978 10.3777 45.0496 
685 1 1 -0.834 18.9292 3.32726 68.7928 
686 1 1 -0.834 20.0362 19.0908 59.0861 
687 1 1 -0.834 15.8041 9.77873 71.8927 
688 1 1 -0.834 15.8823 3.82603 43.4247 
689 1 1 -0.834 0.861695 23.7075 46.0259 
690 1 1 -0.834 4.39902 6.83405 62.5025 
691 1 1 -0.834 18.3062 22.6087 46.4862 
692 1 1 -0.834 4.19882 10.6841 53.523 
693 1 1 -0.834 17.1 1.16555 75.8336 
694 1 1 -0.834 5.25887 8.91082 25.5238 
695 1 1 -0.834 12.2939 16.8168 61.3458 
696 1 1 -0.834 3.48155 19.943 74.6918 
697 1 1 -0.834 2.03228 16.1592 62.8294 
698 1 1 -0.834 7.69162 9.21226 86.0943 
699 1 1 -0.834 24.008 18.96 78.6267 
700 1 1 -0.834 15.1838 18.171 47.9934 
701 1 1 -0.834 4.26965 11.6526 24.8324 
702 1 1 -0.834 0.303294 24.2757 73.2031 
703 1 1 -0.834 18.4207 5.64653 58.2104 
704 1 1 -0.834 13.2874 11.1719 3.73077 
705 1 1 -0.834 23.248 19.3739 68.8028 
706 1 1 -0.834 2.57493 14.5624 82.9203 
707 1 1 -0.834 14.7634 14.3284 61.0135 
708 1 1 -0.834 15.7986 7.70721 75.0324 
709 1 1 -0.834 11.7473 17.5606 14.0732 
710 1 1 -0.834 5.96906 0.128379 43.925 
711 1 1 -0.834 0.486059 19.7605 85.8929 
712 1 1 -0.834 5.96946 4.60481 34.9675 
713 1 1 -0.834 12.7845 2.48481 51.6493 
714 1 1 -0.834 9.42837 15.0488 68.2028 
715 1 1 -0.834 21.8131 22.609 85.5457 
716 1 1 -0.834 11.0245 0.751619 81.9872 
717 1 1 -0.834 2.26258 8.67829 45.9703 
718 1 1 -0.834 0.434753 4.55814 45.2194 
719 1 1 -0.834 3.90501 4.89499 55.1514 
720 1 1 -0.834 12.9797 8.23133 51.4336 
721 1 1 -0.834 2.13734 1.08015 8.6137 
722 1 1 -0.834 13.503 19.1408 37.7079 
723 1 1 -0.834 3.25439 14.5358 46.4696 
724 1 1 -0.834 18.3887 11.3985 41.2209 
725 1 1 -0.834 3.81935 6.44044 30.1708 
726 1 1 -0.834 9.7941 17.2417 49.2015 
727 1 1 -0.834 7.44449 19.902 52.4401 
728 1 1 -0.834 19.4171 5.38032 42.1356 
729 1 1 -0.834 5.46919 2.58822 30.0797 
730 1 1 -0.834 1.25241 18.7053 26.002 
731 1 1 -0.834 20.2161 12.826 78.7762 
732 1 1 -0.834 6.29773 7.05794 54.6497 
733 1 1 -0.834 8.32259 20.8235 44.8363 
734 1 1 -0.834 22.6923 14.4772 84.0063 
735 1 1 -0.834 24.1343 19.567 4.74339 
736 1 1 -0.834 20.7701 19.1602 78.2038 
737 1 1 -0.834 19.3466 13.8507 11.6241 
738 1 1 -0.834 22.9941 21.9404 3.80882 
739 1 1 -0.834 9.31103 8.68542 54.9978 
740 1 1 -0.834 18.1954 9.289 62.2139 
741 1 1 -0.834 23.5354 7.4927 74.9584 
742 1 1 -0.834 21.2373 21.5092 46.6631 
743 1 1 -0.834 10.2826 1.79417 79.3028 
744 1 1 -0.834 10.4502 22.0187 65.9693 
745 1 1 -0.834 15.7084 5.4095 69.2705 
746 1 1 -0.834 18.7228 14.7736 45.5683 
747 1 1 -0.834 18.5505 6.08561 49.5873 
748 1 1 -0.834 2.54714 5.41771 32.7887 
749 1 1 -0.834 6.21843 22.9153 41.6379 
750 1 1 -0.834 12.3831 13.5573 62.6673 
751 1 1 -0.834 20.29 17.7078 25.5014 