 DBCSR| CPU Multiplication driver                                           XSMM
 DBCSR| Multrec recursion limit                                              512
 DBCSR| Multiplication stack size                                           1000
 DBCSR| Maximum elements for images                                    UNLIMITED
 DBCSR| Multiplicative factor virtual images                                   1
 DBCSR| Use multiplication densification                                       T
 DBCSR| Multiplication size stacks                                             3
 DBCSR| Use memory pool for CPU allocation                                     F
 DBCSR| Number of 3D layers                                               SINGLE
 DBCSR| Use MPI memory allocation                                              F
 DBCSR| Use RMA algorithm                                                      F
 DBCSR| Use Communication thread                                               T
 DBCSR| Communication thread load                                             87
 DBCSR| MPI: My node id                                                        0
 DBCSR| MPI: Number of nodes                                                  24
 DBCSR| OMP: Current number of threads                                         1
 DBCSR| OMP: Max number of threads                                             1
 DBCSR| Split modifier for TAS multiplication algorithm                  1.0E+00


  **** **** ******  **  PROGRAM STARTED AT               2022-09-04 17:49:09.884
 ***** ** ***  *** **   PROGRAM STARTED ON         node1332.palmetto.clemson.edu
 **    ****   ******    PROGRAM STARTED BY                               xiutinc
 ***** **    ** ** **   PROGRAM PROCESS ID                               3765508
  **** **  *******  **  PROGRAM STARTED IN    /scratch1/xiutinc/CP2K-97010.pbs02

 CP2K| version string:                                          CP2K version 9.1
 CP2K| source code revision number:                                  git:d8d7100
 CP2K| cp2kflags: omp libint fftw3 libxc parallel mpi3 scalapack xsmm           
 CP2K| is freely available from                            https://www.cp2k.org/
 CP2K| Program compiled at                          Mon Aug  8 12:17:03 EDT 2022
 CP2K| Program compiled on                         node0352.palmetto.clemson.edu
 CP2K| Program compiled for                           linux-rocky8-ivybridge-gcc
 CP2K| Data directory path    /software/spackages/linux-rocky8-ivybridge/gcc-9.5
 CP2K| Input file name                                             intE10_aq.inp

 GLOBAL| Force Environment number                                              1
 GLOBAL| Basis set file name                                          BASIS_file
 GLOBAL| Potential file name                                     POTENTIALS_file
 GLOBAL| MM Potential file name                                     MM_POTENTIAL
 GLOBAL| Coordinate file name                                    ./intE10_aq.xyz
 GLOBAL| Method name                                                        CP2K
 GLOBAL| Project name                                                  intE10_aq
 GLOBAL| Run type                                                        GEO_OPT
 GLOBAL| FFT library                                                       FFTW3
 GLOBAL| Diagonalization library                                       ScaLAPACK
 GLOBAL| Orthonormality check for eigenvectors                          DISABLED
 GLOBAL| Matrix multiplication library                                 ScaLAPACK
 GLOBAL| All-to-all communication in single precision                          F
 GLOBAL| FFTs using library dependent lengths                                  F
 GLOBAL| Grid backend                                                       AUTO
 GLOBAL| Global print level                                                  LOW
 GLOBAL| MPI I/O enabled                                                       T
 GLOBAL| Total number of message passing processes                            24
 GLOBAL| Number of threads for this process                                    1
 GLOBAL| This output is from process                                           0
 GLOBAL| Stack size for threads created by OpenMP (OMP_STACKSIZE)        default
 GLOBAL| CPU model name                Intel(R) Xeon(R) CPU E5-2680 v3 @ 2.50GHz
 GLOBAL| CPUID                                                              1002
 GLOBAL| Compiled for CPUID                                                 1001

 *** HINT in environment.F:869 :: The compiler target flags (x86_avx) used ***
 *** to build this binary cannot exploit all extensions of this CPU model  ***
 *** (x86_avx2). Consider compiler target flags as part of FCFLAGS and     ***
 *** CFLAGS (ARCH file).                                                   ***


 MEMORY| system memory details [Kb]
 MEMORY|                        rank 0           min           max       average
 MEMORY| MemTotal            131294764     131294764     131294764     131294764
 MEMORY| MemFree             123460424     123460424     123460424     123460424
 MEMORY| Buffers                  2400          2400          2400          2400
 MEMORY| Cached                2601712       2601712       2601712       2601712
 MEMORY| Slab                   607032        607032        607032        607032
 MEMORY| SReclaimable           266584        266584        266584        266584
 MEMORY| MemLikelyFree       126331120     126331120     126331120     126331120


 *******************************************************************************
 *******************************************************************************
 **                                                                           **
 **     #####                         ##              ##                      **
 **    ##   ##            ##          ##              ##                      **
 **   ##     ##                       ##            ######                    **
 **   ##     ##  ##   ##  ##   #####  ##  ##   ####   ##    #####    #####    **
 **   ##     ##  ##   ##  ##  ##      ## ##   ##      ##   ##   ##  ##   ##   **
 **   ##  ## ##  ##   ##  ##  ##      ####     ###    ##   ######   ######    **
 **    ##  ###   ##   ##  ##  ##      ## ##      ##   ##   ##       ##        **
 **     #######   #####   ##   #####  ##  ##  ####    ##    #####   ##        **
 **           ##                                                    ##        **
 **                                                                           **
 **                                                ... make the atoms dance   **
 **                                                                           **
 **            Copyright (C) by CP2K developers group (2000-2021)             **
 **                      J. Chem. Phys. 152, 194103 (2020)                    **
 **                                                                           **
 *******************************************************************************


 TOTAL NUMBERS AND MAXIMUM NUMBERS

  Total number of            - Atomic kinds:                                   5
                             - Atoms:                                        658
                             - Shell sets:                                   658
                             - Shells:                                      3181
                             - Primitive Cartesian functions:               3101
                             - Cartesian basis functions:                   8725
                             - Spherical basis functions:                   8119

  Maximum angular momentum of- Orbital basis functions:                        3
                             - Local part of the GTH pseudopotential:          2
                             - Non-local part of the GTH pseudopotential:      3


 SCF PARAMETERS         Density guess:                                   RESTART
                        --------------------------------------------------------
                        max_scf:                                             500
                        max_scf_history:                                       0
                        max_diis:                                              4
                        --------------------------------------------------------
                        eps_scf:                                        1.00E-06
                        eps_scf_history:                                0.00E+00
                        eps_diis:                                       1.00E-01
                        eps_eigval:                                     1.00E-05
                        --------------------------------------------------------
                        level_shift [a.u.]:                                 0.00
                        --------------------------------------------------------
                        Outer loop SCF in use 
                        No variables optimised in outer loop
                        eps_scf                                         1.00E-06
                        max_scf                                               50
                        No outer loop optimization
                        step_size                                       5.00E-01

 BFGS| Use rational function optimization for step estimation:                NO
 BFGS| Use model Hessian for initial guess:                                  YES
 BFGS| Restart Hessian:                                                       NO
 BFGS| Trust radius:                                                       0.472

 *******************************************************************************
 ***                     STARTING GEOMETRY OPTIMIZATION                      ***
 ***                                   BFGS                                  ***
 *******************************************************************************

 Number of electrons:                                                       3288
 Number of occupied orbitals:                                               1644
 Number of molecular orbitals:                                              1644

 Number of orbital functions:                                               8119
 Number of independent orbital functions:                                   8119

 Extrapolation method: initial_guess

 *** WARNING in qs_initial_guess.F:309 :: User requested to restart the   ***
 *** wavefunction from the file named: intE10_aq-RESTART.wfn. This file   ***
 *** does not exist. Please check the existence of the file or change     ***
 *** properly the value of the keyword WFN_RESTART_FILE_NAME. Calculation ***
 *** continues using ATOMIC GUESS.                                        ***



 SCF WAVEFUNCTION OPTIMIZATION

  ----------------------------------- OT ---------------------------------------
  Minimizer      : CG                  : conjugate gradient
  Preconditioner : FULL_ALL            : diagonalization, state selective
  Precond_solver : DEFAULT
  Line search    : 2PNT                : 2 energies, one gradient
  stepsize       :    0.15000000                  energy_gap     :    0.00100000
  eps_taylor     :   0.10000E-15                  max_taylor     :             4
  ----------------------------------- OT ---------------------------------------

  Step     Update method      Time    Convergence         Total energy    Change
  ------------------------------------------------------------------------------
     1 OT CG       0.15E+00   40.7     0.01608537     -7197.1931712845 -7.20E+03
     2 OT LS       0.62E-01    4.7                    -7091.0183839045
     3 OT CG       0.62E-01   13.8     0.07075162     -7122.0625174558  7.51E+01
     4 OT LS       0.28E-01    4.6                    -6684.0893380400
     5 OT CG       0.28E-01   11.4     0.10219854     -6898.9690686944  2.23E+02
     6 OT LS       0.16E-01    4.5                    -6989.0659106141
     7 OT CG       0.16E-01   11.4     0.05463272     -7083.5170143834 -1.85E+02
     8 OT LS       0.90E-02    4.5                    -7162.2166264005
     9 OT CG       0.90E-02   11.4     0.01693236     -7202.3289355744 -1.19E+02
    10 OT LS       0.25E-01    4.5                    -7224.8320143377
    11 OT CG       0.25E-01   11.4     0.01720874     -7233.2166831408 -3.09E+01
    12 OT LS       0.26E-01    4.5                    -7268.7420871701
    13 OT CG       0.26E-01   11.4     0.01828296     -7268.6768767087 -3.55E+01
    14 OT LS       0.15E-01    4.5                    -7282.9249042401
    15 OT CG       0.15E-01   11.4     0.01058596     -7295.0267368002 -2.63E+01
    16 OT LS       0.60E-01    4.5                    -7312.3281792299
    17 OT CG       0.60E-01   11.6     0.02485859     -7301.6575203257 -6.63E+00
    18 OT LS       0.28E-01    4.5                    -7265.1280925549
    19 OT CG       0.28E-01   11.4     0.02215053     -7290.3722887930  1.13E+01
    20 OT LS       0.65E-02    4.5                    -7153.7238964326
    21 OT CG       0.65E-02   11.4     0.01223542     -7314.0001715411 -2.36E+01
    22 OT LS       0.14E-01    4.5                    -7323.9408401109
    23 OT CG       0.14E-01   11.4     0.00936151     -7327.2878907607 -1.33E+01
    24 OT LS       0.45E-01    4.5                    -7339.8417229066
    25 OT CG       0.45E-01   11.4     0.01372868     -7343.7159376284 -1.64E+01
    26 OT LS       0.52E-02    4.5                    -7169.9574218026
    27 OT CG       0.52E-02   11.5     0.01277130     -7347.6635112395 -3.95E+00
    28 OT LS       0.12E-01    5.6                    -7356.4732340287
    29 OT CG       0.12E-01   11.8     0.00379790     -7361.2030068544 -1.35E+01
    30 OT LS       0.46E-01    4.6                    -7363.2732343199
    31 OT CG       0.46E-01   13.4     0.00258780     -7367.6490943593 -6.45E+00
    32 OT LS       0.16E+00    4.7                    -7371.2327315367
    33 OT CG       0.16E+00   11.4     0.00752451     -7372.3065583352 -4.66E+00
    34 OT LS       0.97E-02    4.5                    -7110.3487372897
    35 OT CG       0.97E-02   11.4     0.00910294     -7372.3316330820 -2.51E-02
    36 OT LS       0.13E-01    4.5                    -7378.7246106736
    37 OT CG       0.13E-01   11.4     0.00267071     -7379.4729486908 -7.14E+00
    38 OT LS       0.54E-01    4.5                    -7380.6390607140
    39 OT CG       0.54E-01   11.4     0.00176562     -7382.7099541782 -3.24E+00
    40 OT LS       0.98E-01    4.5                    -7384.5073805016
    41 OT CG       0.98E-01   11.4     0.00208724     -7385.1219953259 -2.41E+00
    42 OT LS       0.51E-01    4.5                    -7385.4430041721
    43 OT CG       0.51E-01   11.4     0.00263752     -7386.9649030683 -1.84E+00
    44 OT LS       0.61E-01    4.5                    -7389.8166483530
    45 OT CG       0.61E-01   11.4     0.00300582     -7389.8886390361 -2.92E+00
    46 OT LS       0.46E-01    4.5                    -7392.2869210175
    47 OT CG       0.46E-01   11.6     0.00261421     -7392.4587695363 -2.57E+00
    48 OT LS       0.49E-01    4.5                    -7394.7403501387
    49 OT CG       0.49E-01   11.4     0.00249377     -7394.7207869528 -2.26E+00
    50 OT LS       0.56E-01    4.5                    -7396.7252352787
    51 OT CG       0.56E-01   11.4     0.00259359     -7396.7460838424 -2.03E+00
    52 OT LS       0.36E-01    4.5                    -7397.8984709773
    53 OT CG       0.36E-01   11.4     0.00184507     -7398.2519643884 -1.51E+00
    54 OT LS       0.12E+00    4.5                    -7399.6604448918
    55 OT CG       0.12E+00   11.4     0.00236545     -7400.7686620347 -2.52E+00
    56 OT LS       0.48E-01    4.5                    -7398.6156664280
    57 OT CG       0.48E-01   11.4     0.00196387     -7402.1984896815 -1.43E+00
    58 OT LS       0.60E-01    4.5                    -7403.6902154992
    59 OT CG       0.60E-01   11.4     0.00161422     -7403.7906232590 -1.59E+00
    60 OT LS       0.66E-01    4.5                    -7405.0072796737
    61 OT CG       0.66E-01   11.4     0.00126353     -7405.0061087165 -1.22E+00
    62 OT LS       0.11E+00    4.5                    -7405.9050968168
    63 OT CG       0.11E+00   11.4     0.00147875     -7406.0789741436 -1.07E+00
    64 OT LS       0.87E-01    4.5                    -7407.3047427042
    65 OT CG       0.87E-01   11.4     0.00152763     -7407.3563287347 -1.28E+00
    66 OT LS       0.84E-01    4.5                    -7408.6865307130
    67 OT CG       0.84E-01   11.4     0.00154190     -7408.6946531597 -1.34E+00
    68 OT LS       0.86E-01    4.5                    -7409.9903403908
    69 OT CG       0.86E-01   11.4     0.00168301     -7409.9915133289 -1.30E+00
    70 OT LS       0.73E-01    4.5                    -7411.3301407517
    71 OT CG       0.73E-01   11.4     0.00132984     -7411.3616152807 -1.37E+00
    72 OT LS       0.91E-01    4.5                    -7412.4148828848
    73 OT CG       0.91E-01   11.4     0.00142435     -7412.4412278040 -1.08E+00
    74 OT LS       0.78E-01    4.5                    -7413.4003554571
    75 OT CG       0.78E-01   11.4     0.00135233     -7413.4244781480 -9.83E-01
    76 OT LS       0.77E-01    4.5                    -7414.3732152688
    77 OT CG       0.77E-01   13.0     0.00115966     -7414.3725877112 -9.48E-01
    78 OT LS       0.96E-01    4.6                    -7415.2294314548
    79 OT CG       0.96E-01   11.4     0.00110459     -7415.2531602445 -8.81E-01
    80 OT LS       0.85E-01    4.5                    -7415.9038982218
    81 OT CG       0.85E-01   11.4     0.00122387     -7415.9158143554 -6.63E-01
    82 OT LS       0.82E-01    4.5                    -7416.7257397383
    83 OT CG       0.82E-01   11.4     0.00099915     -7416.7256098352 -8.10E-01
    84 OT LS       0.10E+00    4.5                    -7417.3936332097
    85 OT CG       0.10E+00   11.4     0.00104548     -7417.4175480125 -6.92E-01
    86 OT LS       0.85E-01    4.5                    -7417.9918540235
    87 OT CG       0.85E-01   11.4     0.00102672     -7418.0206562278 -6.03E-01
    88 OT LS       0.91E-01    4.5                    -7418.6570555675
    89 OT CG       0.91E-01   11.4     0.00095991     -7418.6621039140 -6.41E-01
    90 OT LS       0.91E-01    4.5                    -7419.2313573517
    91 OT CG       0.91E-01   11.4     0.00092386     -7419.2314410829 -5.69E-01
    92 OT LS       0.92E-01    4.5                    -7419.7494838420
    93 OT CG       0.92E-01   11.6     0.00094579     -7419.7493623798 -5.18E-01
    94 OT LS       0.89E-01    4.5                    -7420.2735284059
    95 OT CG       0.89E-01   11.4     0.00090513     -7420.2736909799 -5.24E-01
    96 OT LS       0.82E-01    4.5                    -7420.7233759942
    97 OT CG       0.82E-01   11.4     0.00081890     -7420.7259614457 -4.52E-01
    98 OT LS       0.99E-01    4.5                    -7421.1608790919
    99 OT CG       0.99E-01   11.4     0.00081111     -7421.1728155252 -4.47E-01
   100 OT LS       0.91E-01    4.5                    -7421.5661386400
   101 OT CG       0.91E-01   11.4     0.00082318     -7421.5695343389 -3.97E-01
   102 OT LS       0.89E-01    4.7                    -7421.9703094384
   103 OT CG       0.89E-01   12.1     0.00075023     -7421.9704520126 -4.01E-01
   104 OT LS       0.93E-01    4.8                    -7422.3207145972
   105 OT CG       0.93E-01   12.5     0.00073504     -7422.3213544303 -3.51E-01
   106 OT LS       0.95E-01    4.9                    -7422.6645924238
   107 OT CG       0.95E-01   11.6     0.00072116     -7422.6646752926 -3.43E-01
   108 OT LS       0.93E-01    4.5                    -7422.9863607732
   109 OT CG       0.93E-01   11.4     0.00071768     -7422.9865027474 -3.22E-01
   110 OT LS       0.88E-01    4.5                    -7423.2879873311
   111 OT CG       0.88E-01   11.4     0.00066218     -7423.2888965896 -3.02E-01
   112 OT LS       0.94E-01    4.5                    -7423.5647922556
   113 OT CG       0.94E-01   11.4     0.00065314     -7423.5660398477 -2.77E-01
   114 OT LS       0.95E-01    4.5                    -7423.8357090530
   115 OT CG       0.95E-01   11.4     0.00063471     -7423.8357071452 -2.70E-01
   116 OT LS       0.94E-01    4.5                    -7424.0863486293
   117 OT CG       0.94E-01   11.4     0.00062428     -7424.0863926698 -2.51E-01
   118 OT LS       0.90E-01    4.5                    -7424.3209812906
   119 OT CG       0.90E-01   11.4     0.00058806     -7424.3212320309 -2.35E-01
   120 OT LS       0.96E-01    4.5                    -7424.5413894898
   121 OT CG       0.96E-01   11.4     0.00057827     -7424.5420426198 -2.21E-01
   122 OT LS       0.94E-01    4.5                    -7424.7525936389
   123 OT CG       0.94E-01   11.5     0.00055785     -7424.7526414315 -2.11E-01
   124 OT LS       0.95E-01    4.5                    -7424.9491099293
   125 OT CG       0.95E-01   11.4     0.00054803     -7424.9491123239 -1.96E-01
   126 OT LS       0.92E-01    4.5                    -7425.1333153003
   127 OT CG       0.92E-01   11.4     0.00052157     -7425.1334658333 -1.84E-01
   128 OT LS       0.96E-01    4.5                    -7425.3073658696
   129 OT CG       0.96E-01   11.4     0.00051086     -7425.3076514504 -1.74E-01
   130 OT LS       0.94E-01    4.5                    -7425.4717813064
   131 OT CG       0.94E-01   11.4     0.00049453     -7425.4718378714 -1.64E-01
   132 OT LS       0.95E-01    4.5                    -7425.6274873707
   133 OT CG       0.95E-01   11.4     0.00048381     -7425.6275104840 -1.56E-01
   134 OT LS       0.93E-01    4.5                    -7425.7730762859
   135 OT CG       0.93E-01   11.4     0.00046749     -7425.7731526191 -1.46E-01
   136 OT LS       0.95E-01    4.5                    -7425.9121675151
   137 OT CG       0.95E-01   11.4     0.00045426     -7425.9122341538 -1.39E-01
   138 OT LS       0.94E-01    4.6                    -7426.0423447216
   139 OT CG       0.94E-01   11.4     0.00044269     -7426.0423563726 -1.30E-01
   140 OT LS       0.95E-01    4.5                    -7426.1672039072
   141 OT CG       0.95E-01   11.4     0.00043203     -7426.1672173544 -1.25E-01
   142 OT LS       0.95E-01    4.5                    -7426.2851211751
   143 OT CG       0.95E-01   11.4     0.00041799     -7426.2851295112 -1.18E-01
   144 OT LS       0.96E-01    4.5                    -7426.3968883232
   145 OT CG       0.96E-01   11.4     0.00040776     -7426.3969061623 -1.12E-01
   146 OT LS       0.95E-01    4.5                    -7426.5027798690
   147 OT CG       0.95E-01   11.4     0.00039691     -7426.5027824243 -1.06E-01
   148 OT LS       0.95E-01    4.5                    -7426.6032079016
   149 OT CG       0.95E-01   11.4     0.00038797     -7426.6032080224 -1.00E-01
   150 OT LS       0.95E-01    4.5                    -7426.6990165865
   151 OT CG       0.95E-01   13.9     0.00037555     -7426.6990167776 -9.58E-02
   152 OT LS       0.96E-01    4.5                    -7426.7894893182
   153 OT CG       0.96E-01   11.5     0.00036631     -7426.7894952272 -9.05E-02
   154 OT LS       0.96E-01    4.5                    -7426.8758568451
   155 OT CG       0.96E-01   11.4     0.00035729     -7426.8758577199 -8.64E-02
   156 OT LS       0.96E-01    4.5                    -7426.9578893401
   157 OT CG       0.96E-01   11.4     0.00034760     -7426.9578896058 -8.20E-02
   158 OT LS       0.97E-01    4.5                    -7427.0360855795
   159 OT CG       0.97E-01   11.4     0.00033931     -7427.0360895979 -7.82E-02
   160 OT LS       0.96E-01    4.5                    -7427.1100255405
   161 OT CG       0.96E-01   11.4     0.00033104     -7427.1100297252 -7.39E-02
   162 OT LS       0.97E-01    4.5                    -7427.1807293304
   163 OT CG       0.97E-01   11.4     0.00032342     -7427.1807308466 -7.07E-02
   164 OT LS       0.97E-01    4.5                    -7427.2482261802
   165 OT CG       0.97E-01   11.4     0.00031536     -7427.2482261772 -6.75E-02
   166 OT LS       0.98E-01    4.5                    -7427.3130040889
   167 OT CG       0.98E-01   11.4     0.00030834     -7427.3130096787 -6.48E-02
   168 OT LS       0.97E-01    4.7                    -7427.3746338068
   169 OT CG       0.97E-01   11.4     0.00030203     -7427.3746351891 -6.16E-02
   170 OT LS       0.97E-01    4.5                    -7427.4337804014
   171 OT CG       0.97E-01   11.4     0.00029600     -7427.4337804099 -5.91E-02
   172 OT LS       0.97E-01    4.5                    -7427.4902775526
   173 OT CG       0.97E-01   11.4     0.00028957     -7427.4902793534 -5.65E-02
   174 OT LS       0.97E-01    4.5                    -7427.5446803725
   175 OT CG       0.97E-01   11.4     0.00028349     -7427.5446822366 -5.44E-02
   176 OT LS       0.97E-01    4.5                    -7427.5968051733
   177 OT CG       0.97E-01   12.3     0.00027703     -7427.5968051673 -5.21E-02
   178 OT LS       0.98E-01    4.8                    -7427.6468769615
   179 OT CG       0.98E-01   11.6     0.00027218     -7427.6468789331 -5.01E-02
   180 OT LS       0.97E-01    6.9                    -7427.6949283059
   181 OT CG       0.97E-01   11.4     0.00026630     -7427.6949299579 -4.81E-02
   182 OT LS       0.97E-01    4.5                    -7427.7409967863
   183 OT CG       0.97E-01   11.5     0.00026170     -7427.7409968498 -4.61E-02
   184 OT LS       0.97E-01    4.5                    -7427.7853414843
   185 OT CG       0.97E-01   11.4     0.00025661     -7427.7853420270 -4.43E-02
   186 OT LS       0.97E-01    4.5                    -7427.8280691768
   187 OT CG       0.97E-01   11.4     0.00025185     -7427.8280694204 -4.27E-02
   188 OT LS       0.98E-01    4.5                    -7427.8694918517
   189 OT CG       0.98E-01   11.4     0.00024729     -7427.8694936486 -4.14E-02
   190 OT LS       0.98E-01    4.5                    -7427.9096774140
   191 OT CG       0.98E-01   11.4     0.00024277     -7427.9096787802 -4.02E-02
   192 OT LS       0.99E-01    4.5                    -7427.9484798103
   193 OT CG       0.99E-01   11.4     0.00023946     -7427.9484798899 -3.88E-02
   194 OT LS       0.98E-01    4.5                    -7427.9859432247
   195 OT CG       0.98E-01   11.4     0.00023537     -7427.9859453055 -3.75E-02
   196 OT LS       0.98E-01    4.5                    -7428.0221620261
   197 OT CG       0.98E-01   11.4     0.00023184     -7428.0221620444 -3.62E-02
   198 OT LS       0.98E-01    4.7                    -7428.0571486933
   199 OT CG       0.98E-01   11.4     0.00022796     -7428.0571493851 -3.50E-02
   200 OT LS       0.98E-01    4.5                    -7428.0909910703
   201 OT CG       0.98E-01   11.4     0.00022390     -7428.0909910701 -3.38E-02
   202 OT LS       0.98E-01    4.5                    -7428.1238718528
   203 OT CG       0.98E-01   11.4     0.00021975     -7428.1238735255 -3.29E-02
   204 OT LS       0.99E-01    4.5                    -7428.1556965915
   205 OT CG       0.99E-01   11.4     0.00021599     -7428.1556973880 -3.18E-02
   206 OT LS       0.99E-01    4.5                    -7428.1864168236
   207 OT CG       0.99E-01   11.4     0.00021261     -7428.1864168494 -3.07E-02
   208 OT LS       0.98E-01    4.5                    -7428.2160348640
   209 OT CG       0.98E-01   11.4     0.00020922     -7428.2160356952 -2.96E-02
   210 OT LS       0.98E-01    4.5                    -7428.2446553081
   211 OT CG       0.98E-01   11.4     0.00020609     -7428.2446554439 -2.86E-02
   212 OT LS       0.98E-01    4.5                    -7428.2723649045
   213 OT CG       0.98E-01   11.5     0.00020259     -7428.2723650174 -2.77E-02
   214 OT LS       0.98E-01    4.5                    -7428.2992071489
   215 OT CG       0.98E-01   11.4     0.00019949     -7428.2992072962 -2.68E-02
   216 OT LS       0.97E-01    4.5                    -7428.3250921314
   217 OT CG       0.97E-01   11.4     0.00019617     -7428.3250929528 -2.59E-02
   218 OT LS       0.98E-01    4.5                    -7428.3503556403
   219 OT CG       0.98E-01   11.4     0.00019283     -7428.3503577609 -2.53E-02
   220 OT LS       0.99E-01    4.5                    -7428.3748231187
   221 OT CG       0.99E-01   11.4     0.00018977     -7428.3748232579 -2.45E-02
   222 OT LS       0.99E-01    4.5                    -7428.3986735199
   223 OT CG       0.99E-01   11.4     0.00018676     -7428.3986744922 -2.39E-02
   224 OT LS       0.99E-01    4.5                    -7428.4216703924
   225 OT CG       0.99E-01   15.3     0.00018439     -7428.4216709150 -2.30E-02
   226 OT LS       0.99E-01    4.5                    -7428.4440419727
   227 OT CG       0.99E-01   11.4     0.00018190     -7428.4440420632 -2.24E-02
   228 OT LS       0.98E-01    4.7                    -7428.4657291518
   229 OT CG       0.98E-01   11.4     0.00017888     -7428.4657294639 -2.17E-02
   230 OT LS       0.99E-01    4.5                    -7428.4868308583
   231 OT CG       0.99E-01   11.4     0.00017624     -7428.4868316386 -2.11E-02
   232 OT LS       0.98E-01    4.6                    -7428.5071504552
   233 OT CG       0.98E-01   11.4     0.00017342     -7428.5071518353 -2.03E-02
   234 OT LS       0.99E-01    4.5                    -7428.5269705763
   235 OT CG       0.99E-01   11.4     0.00017092     -7428.5269716189 -1.98E-02
   236 OT LS       0.99E-01    4.5                    -7428.5462191124
   237 OT CG       0.99E-01   11.4     0.00016807     -7428.5462191124 -1.92E-02
   238 OT LS       0.10E+00    4.5                    -7428.5649831567
   239 OT CG       0.10E+00   11.4     0.00016587     -7428.5649844334 -1.88E-02
   240 OT LS       0.99E-01    4.5                    -7428.5831701844
   241 OT CG       0.99E-01   11.4     0.00016381     -7428.5831706845 -1.82E-02
   242 OT LS       0.98E-01    4.5                    -7428.6007954084
   243 OT CG       0.98E-01   11.5     0.00016169     -7428.6007961332 -1.76E-02
   244 OT LS       0.98E-01    4.5                    -7428.6179360226
   245 OT CG       0.98E-01   11.4     0.00015904     -7428.6179360753 -1.71E-02
   246 OT LS       0.99E-01    4.5                    -7428.6345784933
   247 OT CG       0.99E-01   11.4     0.00015671     -7428.6345787178 -1.66E-02
   248 OT LS       0.98E-01    4.5                    -7428.6506977659
   249 OT CG       0.98E-01   11.4     0.00015444     -7428.6506978776 -1.61E-02
   250 OT LS       0.98E-01    4.5                    -7428.6663747088
   251 OT CG       0.98E-01   12.5     0.00015217     -7428.6663747301 -1.57E-02
   252 OT LS       0.99E-01    4.6                    -7428.6816180165
   253 OT CG       0.99E-01   11.8     0.00014997     -7428.6816180559 -1.52E-02
   254 OT LS       0.99E-01    5.9                    -7428.6964686313
   255 OT CG       0.99E-01   12.2     0.00014809     -7428.6964687734 -1.49E-02
   256 OT LS       0.99E-01    4.5                    -7428.7109589193
   257 OT CG       0.99E-01   11.4     0.00014599     -7428.7109589247 -1.45E-02
   258 OT LS       0.10E+00    4.8                    -7428.7251137286
   259 OT CG       0.10E+00   11.4     0.00014445     -7428.7251140821 -1.42E-02
   260 OT LS       0.99E-01    4.5                    -7428.7388955868
   261 OT CG       0.99E-01   11.4     0.00014258     -7428.7388960147 -1.38E-02
   262 OT LS       0.99E-01    4.5                    -7428.7523598688
   263 OT CG       0.99E-01   11.4     0.00014084     -7428.7523599744 -1.35E-02
   264 OT LS       0.99E-01    4.5                    -7428.7654487623
   265 OT CG       0.99E-01   11.4     0.00013908     -7428.7654489472 -1.31E-02
   266 OT LS       0.99E-01    4.5                    -7428.7782175387
   267 OT CG       0.99E-01   11.4     0.00013734     -7428.7782175400 -1.28E-02
   268 OT LS       0.99E-01    4.5                    -7428.7906306885
   269 OT CG       0.99E-01   11.4     0.00013562     -7428.7906308136 -1.24E-02
   270 OT LS       0.99E-01    4.5                    -7428.8027566047
   271 OT CG       0.99E-01   11.4     0.00013384     -7428.8027566461 -1.21E-02
   272 OT LS       0.99E-01    4.5                    -7428.8145890135
   273 OT CG       0.99E-01   11.5     0.00013248     -7428.8145890558 -1.18E-02
   274 OT LS       0.99E-01    4.5                    -7428.8261557732
   275 OT CG       0.99E-01   11.4     0.00013072     -7428.8261558410 -1.16E-02
   276 OT LS       0.10E+00    4.5                    -7428.8375093952
   277 OT CG       0.10E+00   11.4     0.00012921     -7428.8375101421 -1.14E-02
   278 OT LS       0.99E-01    4.5                    -7428.8485860654
   279 OT CG       0.99E-01   11.4     0.00012777     -7428.8485860938 -1.11E-02
   280 OT LS       0.99E-01    4.5                    -7428.8594137454
   281 OT CG       0.99E-01   11.4     0.00012639     -7428.8594137463 -1.08E-02
   282 OT LS       0.99E-01    4.5                    -7428.8699714334
   283 OT CG       0.99E-01   11.4     0.00012488     -7428.8699715596 -1.06E-02
   284 OT LS       0.99E-01    4.5                    -7428.8803195344
   285 OT CG       0.99E-01   11.4     0.00012346     -7428.8803196868 -1.03E-02
   286 OT LS       0.99E-01    4.5                    -7428.8903972781
   287 OT CG       0.99E-01   11.4     0.00012223     -7428.8903974072 -1.01E-02
   288 OT LS       0.99E-01    4.5                    -7428.9002707555
   289 OT CG       0.99E-01   11.6     0.00012101     -7428.9002707582 -9.87E-03
   290 OT LS       0.99E-01    4.5                    -7428.9099217492
   291 OT CG       0.99E-01   11.4     0.00011963     -7428.9099218295 -9.65E-03
   292 OT LS       0.99E-01    4.5                    -7428.9193956182
   293 OT CG       0.99E-01   11.4     0.00011832     -7428.9193958016 -9.47E-03
   294 OT LS       0.10E+00    4.5                    -7428.9287059348
   295 OT CG       0.10E+00   11.4     0.00011681     -7428.9287061400 -9.31E-03
   296 OT LS       0.10E+00    4.5                    -7428.9378092476
   297 OT CG       0.10E+00   11.4     0.00011565     -7428.9378093297 -9.10E-03
   298 OT LS       0.99E-01    4.5                    -7428.9466690156
   299 OT CG       0.99E-01   11.6     0.00011438     -7428.9466694651 -8.86E-03
   300 OT LS       0.99E-01    6.0                    -7428.9553163739
   301 OT CG       0.99E-01   11.4     0.00011300     -7428.9553164223 -8.65E-03
   302 OT LS       0.99E-01    4.5                    -7428.9637798748
   303 OT CG       0.99E-01   11.5     0.00011204     -7428.9637799431 -8.46E-03
   304 OT LS       0.99E-01    4.5                    -7428.9720438153
   305 OT CG       0.99E-01   11.4     0.00011088     -7428.9720441975 -8.26E-03
   306 OT LS       0.99E-01    4.5                    -7428.9801638264
   307 OT CG       0.99E-01   11.4     0.00010993     -7428.9801639029 -8.12E-03
   308 OT LS       0.99E-01    4.5                    -7428.9881516416
   309 OT CG       0.99E-01   11.4     0.00010859     -7428.9881516460 -7.99E-03
   310 OT LS       0.10E+00    4.5                    -7428.9959961212
   311 OT CG       0.10E+00   11.4     0.00010769     -7428.9959964431 -7.84E-03
   312 OT LS       0.99E-01    4.5                    -7429.0036897602
   313 OT CG       0.99E-01   11.4     0.00010639     -7429.0036898240 -7.69E-03
   314 OT LS       0.99E-01    4.5                    -7429.0111971790
   315 OT CG       0.99E-01   11.4     0.00010528     -7429.0111971797 -7.51E-03
   316 OT LS       0.99E-01    4.5                    -7429.0185511257
   317 OT CG       0.99E-01   11.4     0.00010394     -7429.0185511260 -7.35E-03
   318 OT LS       0.10E+00    4.5                    -7429.0257359740
   319 OT CG       0.10E+00   11.4     0.00010289     -7429.0257360170 -7.18E-03
   320 OT LS       0.10E+00    4.5                    -7429.0327693426
   321 OT CG       0.10E+00   11.4     0.00010168     -7429.0327693524 -7.03E-03
   322 OT LS       0.10E+00    4.5                    -7429.0396428624
   323 OT CG       0.10E+00   11.4     0.00010093     -7429.0396428664 -6.87E-03
   324 OT LS       0.99E-01    4.5                    -7429.0463530325
   325 OT CG       0.99E-01   12.9     0.00009990     -7429.0463536220 -6.71E-03
   326 OT LS       0.99E-01    4.6                    -7429.0529396613
   327 OT CG       0.99E-01   11.8     0.00009882     -7429.0529396831 -6.59E-03
   328 OT LS       0.99E-01    6.0                    -7429.0594149010
   329 OT CG       0.99E-01   12.1     0.00009774     -7429.0594150466 -6.48E-03
   330 OT LS       0.10E+00    4.5                    -7429.0657616654
   331 OT CG       0.10E+00   11.4     0.00009685     -7429.0657616876 -6.35E-03
   332 OT LS       0.99E-01    4.5                    -7429.0719887218
   333 OT CG       0.99E-01   11.6     0.00009595     -7429.0719887264 -6.23E-03
   334 OT LS       0.99E-01    4.5                    -7429.0780905535
   335 OT CG       0.99E-01   11.4     0.00009503     -7429.0780905718 -6.10E-03
   336 OT LS       0.99E-01    4.5                    -7429.0840729500
   337 OT CG       0.99E-01   11.4     0.00009417     -7429.0840729508 -5.98E-03
   338 OT LS       0.99E-01    4.5                    -7429.0899345223
   339 OT CG       0.99E-01   11.4     0.00009331     -7429.0899345537 -5.86E-03
   340 OT LS       0.99E-01    4.5                    -7429.0956877950
   341 OT CG       0.99E-01   11.4     0.00009224     -7429.0956877954 -5.75E-03
   342 OT LS       0.10E+00    4.5                    -7429.1013491529
   343 OT CG       0.10E+00   11.4     0.00009129     -7429.1013494125 -5.66E-03
   344 OT LS       0.10E+00    4.5                    -7429.1069085529
   345 OT CG       0.10E+00   11.4     0.00009050     -7429.1069085874 -5.56E-03
   346 OT LS       0.10E+00    4.5                    -7429.1123509883
   347 OT CG       0.10E+00   11.4     0.00008979     -7429.1123510660 -5.44E-03
   348 OT LS       0.99E-01    4.5                    -7429.1176868052
   349 OT CG       0.99E-01   11.4     0.00008898     -7429.1176869025 -5.34E-03
   350 OT LS       0.99E-01    4.5                    -7429.1229332007
   351 OT CG       0.99E-01   11.4     0.00008813     -7429.1229332102 -5.25E-03
   352 OT LS       0.99E-01    4.5                    -7429.1280751519
   353 OT CG       0.99E-01   11.4     0.00008723     -7429.1280751585 -5.14E-03
   354 OT LS       0.10E+00    4.5                    -7429.1331278581
   355 OT CG       0.10E+00   11.4     0.00008628     -7429.1331279075 -5.05E-03
   356 OT LS       0.99E-01    4.5                    -7429.1380692217
   357 OT CG       0.99E-01   11.4     0.00008550     -7429.1380692222 -4.94E-03
   358 OT LS       0.99E-01    4.5                    -7429.1428972574
   359 OT CG       0.99E-01   11.4     0.00008459     -7429.1428973809 -4.83E-03
   360 OT LS       0.99E-01    4.5                    -7429.1476402657
   361 OT CG       0.99E-01   11.4     0.00008374     -7429.1476403201 -4.74E-03
   362 OT LS       0.10E+00    4.5                    -7429.1523011182
   363 OT CG       0.10E+00   11.6     0.00008309     -7429.1523011559 -4.66E-03
   364 OT LS       0.99E-01    4.5                    -7429.1568645528
   365 OT CG       0.99E-01   11.4     0.00008242     -7429.1568646918 -4.56E-03
   366 OT LS       0.99E-01    4.5                    -7429.1613592697
   367 OT CG       0.99E-01   11.4     0.00008169     -7429.1613592733 -4.49E-03
   368 OT LS       0.10E+00    4.5                    -7429.1657937630
   369 OT CG       0.10E+00   11.4     0.00008081     -7429.1657938469 -4.43E-03
   370 OT LS       0.10E+00    4.5                    -7429.1701530660
   371 OT CG       0.10E+00   11.4     0.00008027     -7429.1701531480 -4.36E-03
   372 OT LS       0.99E-01    4.5                    -7429.1744276965
   373 OT CG       0.99E-01   11.4     0.00007955     -7429.1744278536 -4.27E-03
   374 OT LS       0.99E-01    8.6                    -7429.1786233266
   375 OT CG       0.99E-01   11.4     0.00007879     -7429.1786233285 -4.20E-03
   376 OT LS       0.10E+00    4.5                    -7429.1827623964
   377 OT CG       0.10E+00   11.4     0.00007812     -7429.1827625298 -4.14E-03
   378 OT LS       0.99E-01    4.5                    -7429.1868133538
   379 OT CG       0.99E-01   11.5     0.00007748     -7429.1868134391 -4.05E-03
   380 OT LS       0.10E+00    4.5                    -7429.1908012102
   381 OT CG       0.10E+00   11.4     0.00007674     -7429.1908012122 -3.99E-03
   382 OT LS       0.10E+00    4.5                    -7429.1947265550
   383 OT CG       0.10E+00   11.4     0.00007618     -7429.1947266008 -3.93E-03
   384 OT LS       0.10E+00    4.5                    -7429.1985800492
   385 OT CG       0.10E+00   11.4     0.00007553     -7429.1985801046 -3.85E-03
   386 OT LS       0.10E+00    4.5                    -7429.2023726339
   387 OT CG       0.10E+00   11.4     0.00007496     -7429.2023726379 -3.79E-03
   388 OT LS       0.99E-01    4.5                    -7429.2061039043
   389 OT CG       0.99E-01   11.4     0.00007443     -7429.2061039106 -3.73E-03
   390 OT LS       0.99E-01    4.5                    -7429.2097722520
   391 OT CG       0.99E-01   11.4     0.00007385     -7429.2097722803 -3.67E-03
   392 OT LS       0.10E+00    4.5                    -7429.2133940109
   393 OT CG       0.10E+00   11.7     0.00007321     -7429.2133940442 -3.62E-03
   394 OT LS       0.99E-01    4.5                    -7429.2169532030
   395 OT CG       0.99E-01   11.4     0.00007276     -7429.2169532032 -3.56E-03
   396 OT LS       0.99E-01    4.5                    -7429.2204516889
   397 OT CG       0.99E-01   11.4     0.00007214     -7429.2204517669 -3.50E-03
   398 OT LS       0.99E-01    4.5                    -7429.2239042118
   399 OT CG       0.99E-01   13.2     0.00007159     -7429.2239042607 -3.45E-03
   400 OT LS       0.99E-01    4.7                    -7429.2272983487
   401 OT CG       0.99E-01   11.6     0.00007095     -7429.2272983593 -3.39E-03
   402 OT LS       0.10E+00    6.3                    -7429.2306461704
   403 OT CG       0.10E+00   11.5     0.00007029     -7429.2306462304 -3.35E-03
   404 OT LS       0.10E+00    4.5                    -7429.2339448313
   405 OT CG       0.10E+00   11.4     0.00006968     -7429.2339448762 -3.30E-03
   406 OT LS       0.10E+00    4.5                    -7429.2371920162
   407 OT CG       0.10E+00   11.4     0.00006918     -7429.2371920260 -3.25E-03
   408 OT LS       0.10E+00    4.5                    -7429.2403910848
   409 OT CG       0.10E+00   11.5     0.00006872     -7429.2403910855 -3.20E-03
   410 OT LS       0.10E+00    4.5                    -7429.2435354488
   411 OT CG       0.10E+00   11.4     0.00006828     -7429.2435354995 -3.14E-03
   412 OT LS       0.10E+00    4.5                    -7429.2466397188
   413 OT CG       0.10E+00   11.4     0.00006788     -7429.2466397189 -3.10E-03
   414 OT LS       0.99E-01    4.5                    -7429.2496933188
   415 OT CG       0.99E-01   11.4     0.00006753     -7429.2496933823 -3.05E-03
   416 OT LS       0.99E-01    4.5                    -7429.2527025644
   417 OT CG       0.99E-01   11.4     0.00006699     -7429.2527026233 -3.01E-03
   418 OT LS       0.99E-01    4.5                    -7429.2556720141
   419 OT CG       0.99E-01   11.4     0.00006648     -7429.2556720364 -2.97E-03
   420 OT LS       0.10E+00    4.5                    -7429.2586128131
   421 OT CG       0.10E+00   11.4     0.00006588     -7429.2586129065 -2.94E-03
   422 OT LS       0.10E+00    4.5                    -7429.2615097894
   423 OT CG       0.10E+00   11.6     0.00006553     -7429.2615098144 -2.90E-03
   424 OT LS       0.10E+00    4.5                    -7429.2643662796
   425 OT CG       0.10E+00   11.4     0.00006515     -7429.2643663104 -2.86E-03
   426 OT LS       0.10E+00    4.5                    -7429.2671880655
   427 OT CG       0.10E+00   11.4     0.00006468     -7429.2671880668 -2.82E-03
   428 OT LS       0.10E+00    4.5                    -7429.2699730883
   429 OT CG       0.10E+00   11.4     0.00006439     -7429.2699730950 -2.79E-03
   430 OT LS       0.99E-01    4.5                    -7429.2727201642
   431 OT CG       0.99E-01   11.4     0.00006387     -7429.2727202282 -2.75E-03
   432 OT LS       0.10E+00    4.5                    -7429.2754327982
   433 OT CG       0.10E+00   11.4     0.00006341     -7429.2754328301 -2.71E-03
   434 OT LS       0.10E+00    4.5                    -7429.2781140868
   435 OT CG       0.10E+00   11.4     0.00006289     -7429.2781141068 -2.68E-03
   436 OT LS       0.10E+00    4.5                    -7429.2807591311
   437 OT CG       0.10E+00   11.4     0.00006252     -7429.2807591561 -2.65E-03
   438 OT LS       0.10E+00    4.5                    -7429.2833627564
   439 OT CG       0.10E+00   11.5     0.00006210     -7429.2833628006 -2.60E-03
   440 OT LS       0.10E+00    4.5                    -7429.2859309882
   441 OT CG       0.10E+00   11.4     0.00006171     -7429.2859309885 -2.57E-03
   442 OT LS       0.99E-01    4.5                    -7429.2884574150
   443 OT CG       0.99E-01   11.4     0.00006123     -7429.2884574529 -2.53E-03
   444 OT LS       0.99E-01    4.5                    -7429.2909460239
   445 OT CG       0.99E-01   11.4     0.00006079     -7429.2909460252 -2.49E-03
   446 OT LS       0.99E-01    4.5                    -7429.2933998988
   447 OT CG       0.99E-01   11.4     0.00006029     -7429.2933998988 -2.45E-03
   448 OT LS       0.99E-01    8.7                    -7429.2958114979
   449 OT CG       0.99E-01   11.4     0.00005991     -7429.2958114996 -2.41E-03
   450 OT LS       0.99E-01    4.5                    -7429.2981912211
   451 OT CG       0.99E-01   11.4     0.00005941     -7429.2981912220 -2.38E-03
   452 OT LS       0.10E+00    4.5                    -7429.3005446480
   453 OT CG       0.10E+00   11.6     0.00005906     -7429.3005447261 -2.35E-03
   454 OT LS       0.99E-01    4.5                    -7429.3028594366
   455 OT CG       0.99E-01   11.4     0.00005873     -7429.3028594958 -2.31E-03
   456 OT LS       0.99E-01    4.5                    -7429.3051409018
   457 OT CG       0.99E-01   11.4     0.00005835     -7429.3051409258 -2.28E-03
   458 OT LS       0.99E-01    4.5                    -7429.3073960465
   459 OT CG       0.99E-01   11.4     0.00005782     -7429.3073960520 -2.26E-03
   460 OT LS       0.10E+00    4.5                    -7429.3096222707
   461 OT CG       0.10E+00   11.4     0.00005736     -7429.3096223317 -2.23E-03
   462 OT LS       0.10E+00    4.5                    -7429.3118170608
   463 OT CG       0.10E+00   11.4     0.00005702     -7429.3118170678 -2.19E-03
   464 OT LS       0.10E+00    4.5                    -7429.3139769036
   465 OT CG       0.10E+00   11.4     0.00005658     -7429.3139769432 -2.16E-03
   466 OT LS       0.10E+00    4.5                    -7429.3161101177
   467 OT CG       0.10E+00   11.4     0.00005621     -7429.3161101385 -2.13E-03
   468 OT LS       0.10E+00    4.5                    -7429.3182147797
   469 OT CG       0.10E+00   11.5     0.00005586     -7429.3182147800 -2.10E-03
   470 OT LS       0.99E-01    4.5                    -7429.3202836014
   471 OT CG       0.99E-01   11.4     0.00005543     -7429.3202836481 -2.07E-03
   472 OT LS       0.10E+00    4.5                    -7429.3223317933
   473 OT CG       0.10E+00   13.0     0.00005506     -7429.3223318514 -2.05E-03
   474 OT LS       0.10E+00    4.6                    -7429.3243567558
   475 OT CG       0.10E+00   11.7     0.00005464     -7429.3243567635 -2.02E-03
   476 OT LS       0.10E+00    4.6                    -7429.3263522780
   477 OT CG       0.10E+00   12.7     0.00005433     -7429.3263522793 -2.00E-03
   478 OT LS       0.10E+00    4.5                    -7429.3283198163
   479 OT CG       0.10E+00   11.4     0.00005407     -7429.3283198339 -1.97E-03
   480 OT LS       0.99E-01    4.5                    -7429.3302533740
   481 OT CG       0.99E-01   11.4     0.00005369     -7429.3302534902 -1.93E-03
   482 OT LS       0.99E-01    4.5                    -7429.3321625279
   483 OT CG       0.99E-01   11.6     0.00005322     -7429.3321625323 -1.91E-03
   484 OT LS       0.10E+00    4.5                    -7429.3340515929
   485 OT CG       0.10E+00   11.4     0.00005291     -7429.3340516886 -1.89E-03
   486 OT LS       0.10E+00    4.5                    -7429.3359124970
   487 OT CG       0.10E+00   11.4     0.00005254     -7429.3359125216 -1.86E-03
   488 OT LS       0.10E+00    4.5                    -7429.3377488677
   489 OT CG       0.10E+00   11.4     0.00005237     -7429.3377488684 -1.84E-03
   490 OT LS       0.99E-01    4.5                    -7429.3395635909
   491 OT CG       0.99E-01   11.4     0.00005209     -7429.3395636404 -1.81E-03
   492 OT LS       0.99E-01    4.5                    -7429.3413597153
   493 OT CG       0.99E-01   11.4     0.00005181     -7429.3413597155 -1.80E-03
   494 OT LS       0.99E-01    4.5                    -7429.3431413588
   495 OT CG       0.99E-01   11.4     0.00005151     -7429.3431413720 -1.78E-03
   496 OT LS       0.10E+00    4.5                    -7429.3449086413
   497 OT CG       0.10E+00   11.4     0.00005116     -7429.3449086618 -1.77E-03
   498 OT LS       0.10E+00    4.5                    -7429.3466578155
   499 OT CG       0.10E+00   11.5     0.00005082     -7429.3466578341 -1.75E-03
   500 OT LS       0.10E+00    4.5                    -7429.3483894743

  Leaving inner SCF loop after reaching   500 steps.


  Electronic density on regular grids:      -3287.9999971049        0.0000028951
  Core density on regular grids:             3287.9999997998       -0.0000002002
  Total charge density on r-space grids:        0.0000026950
  Total charge density g-space grids:           0.0000026950

  Overlap energy of the core charge distribution:               0.00000892953139
  Self energy of the core charge distribution:             -19117.60169404330736
  Core Hamiltonian energy:                                   5424.56232255044051
  Hartree energy:                                            7997.61110393912622
  Exchange-correlation energy:                              -1731.78768015924334
  Dispersion energy:                                           -2.13245069083188

  Total energy:                                             -7429.34838947428489

  outer SCF iter =    1 RMS gradient =   0.51E-04 energy =      -7429.3483894743

  ----------------------------------- OT ---------------------------------------
  Minimizer      : CG                  : conjugate gradient
  Preconditioner : FULL_ALL            : diagonalization, state selective
  Precond_solver : DEFAULT
  Line search    : 2PNT                : 2 energies, one gradient
  stepsize       :    0.15000000                  energy_gap     :    0.00100000
  eps_taylor     :   0.10000E-15                  max_taylor     :             4
  ----------------------------------- OT ---------------------------------------

  Step     Update method      Time    Convergence         Total energy    Change
  ------------------------------------------------------------------------------
     1 OT CG       0.15E+00   48.2     0.00035160     -7429.3483894950 -1.73E-03
     2 OT LS       0.25E+00    4.3                    -7429.5213549398
     3 OT CG       0.25E+00   11.2     0.00002021     -7429.5537065948 -2.05E-01
     4 OT LS       0.61E-01    4.3                    -7429.5523139856
     5 OT CG       0.61E-01   11.2     0.00000661     -7429.5538749858 -1.68E-04
     6 OT LS       0.72E-01    4.3                    -7429.5538957017
     7 OT CG       0.72E-01   11.2     0.00000201     -7429.5538961834 -2.12E-05
     8 OT LS       0.13E+00    4.3                    -7429.5538989474
     9 OT CG       0.13E+00   11.2     0.00000079     -7429.5538995483 -3.36E-06

  *** SCF run converged in     9 steps ***


  Electronic density on regular grids:      -3287.9999971047        0.0000028953
  Core density on regular grids:             3287.9999997998       -0.0000002002
  Total charge density on r-space grids:        0.0000026951
  Total charge density g-space grids:           0.0000026951

  Overlap energy of the core charge distribution:               0.00000892953139
  Self energy of the core charge distribution:             -19117.60169404330736
  Core Hamiltonian energy:                                   5424.35424785470241
  Hartree energy:                                            7997.65037730393124
  Exchange-correlation energy:                              -1731.82438890234744
  Dispersion energy:                                           -2.13245069083188

  Total energy:                                             -7429.55389954832117

  outer SCF iter =    2 RMS gradient =   0.79E-06 energy =      -7429.5538995483
  outer SCF loop converged in   2 iterations or  509 steps


 ENERGY| Total FORCE_EVAL ( QS ) energy [a.u.]:            -7429.553899880959762

 ATOMIC FORCES in [a.u.]

 # Atom   Kind   Element          X              Y              Z
      1      1      Ti          0.00000000     0.00000000     0.00000000
      2      2      Si          0.00000000     0.00000000     0.00000000
      3      2      Si          0.00000000     0.00000000     0.00000000
      4      2      Si          0.00000000     0.00000000     0.00000000
      5      2      Si          0.00000000     0.00000000     0.00000000
      6      2      Si          0.00000000     0.00000000     0.00000000
      7      2      Si          0.00000000     0.00000000     0.00000000
      8      2      Si          0.00000000     0.00000000     0.00000000
      9      2      Si          0.00000000     0.00000000     0.00000000
     10      2      Si          0.00000000     0.00000000     0.00000000
     11      2      Si          0.00000000     0.00000000     0.00000000
     12      2      Si          0.00000000     0.00000000     0.00000000
     13      2      Si          0.00000000     0.00000000     0.00000000
     14      2      Si          0.00000000     0.00000000     0.00000000
     15      2      Si          0.00000000     0.00000000     0.00000000
     16      2      Si          0.00000000     0.00000000     0.00000000
     17      2      Si          0.00000000     0.00000000     0.00000000
     18      2      Si          0.00000000     0.00000000     0.00000000
     19      2      Si          0.00000000     0.00000000     0.00000000
     20      2      Si          0.00000000     0.00000000     0.00000000
     21      2      Si          0.00000000     0.00000000     0.00000000
     22      2      Si          0.00000000     0.00000000     0.00000000
     23      2      Si          0.00000000     0.00000000     0.00000000
     24      2      Si          0.00000000     0.00000000     0.00000000
     25      2      Si          0.00000000     0.00000000     0.00000000
     26      2      Si          0.00000000     0.00000000     0.00000000
     27      2      Si          0.00000000     0.00000000     0.00000000
     28      2      Si          0.00000000     0.00000000     0.00000000
     29      2      Si          0.00000000     0.00000000     0.00000000
     30      2      Si          0.00000000     0.00000000     0.00000000
     31      2      Si          0.00000000     0.00000000     0.00000000
     32      2      Si          0.00000000     0.00000000     0.00000000
     33      2      Si          0.00000000     0.00000000     0.00000000
     34      2      Si          0.00000000     0.00000000     0.00000000
     35      2      Si          0.00000000     0.00000000     0.00000000
     36      2      Si          0.00000000     0.00000000     0.00000000
     37      2      Si          0.00000000     0.00000000     0.00000000
     38      2      Si          0.00000000     0.00000000     0.00000000
     39      2      Si          0.00000000     0.00000000     0.00000000
     40      2      Si          0.00000000     0.00000000     0.00000000
     41      2      Si          0.00000000     0.00000000     0.00000000
     42      2      Si          0.00000000     0.00000000     0.00000000
     43      2      Si          0.00000000     0.00000000     0.00000000
     44      2      Si          0.00000000     0.00000000     0.00000000
     45      2      Si          0.00000000     0.00000000     0.00000000
     46      2      Si          0.00000000     0.00000000     0.00000000
     47      2      Si          0.00000000     0.00000000     0.00000000
     48      2      Si          0.00000000     0.00000000     0.00000000
     49      2      Si          0.00000000     0.00000000     0.00000000
     50      2      Si          0.00000000     0.00000000     0.00000000
     51      2      Si          0.00000000     0.00000000     0.00000000
     52      2      Si          0.00000000     0.00000000     0.00000000
     53      2      Si          0.00000000     0.00000000     0.00000000
     54      2      Si          0.00000000     0.00000000     0.00000000
     55      2      Si          0.00000000     0.00000000     0.00000000
     56      2      Si          0.00000000     0.00000000     0.00000000
     57      2      Si          0.00000000     0.00000000     0.00000000
     58      2      Si          0.00000000     0.00000000     0.00000000
     59      2      Si          0.00000000     0.00000000     0.00000000
     60      2      Si          0.00000000     0.00000000     0.00000000
     61      2      Si          0.00000000     0.00000000     0.00000000
     62      2      Si          0.00000000     0.00000000     0.00000000
     63      2      Si          0.00000000     0.00000000     0.00000000
     64      2      Si          0.00000000     0.00000000     0.00000000
     65      2      Si          0.00000000     0.00000000     0.00000000
     66      2      Si          0.00000000     0.00000000     0.00000000
     67      2      Si          0.00000000     0.00000000     0.00000000
     68      2      Si          0.00000000     0.00000000     0.00000000
     69      2      Si          0.00000000     0.00000000     0.00000000
     70      2      Si          0.00000000     0.00000000     0.00000000
     71      2      Si          0.00000000     0.00000000     0.00000000
     72      2      Si          0.00000000     0.00000000     0.00000000
     73      2      Si          0.00000000     0.00000000     0.00000000
     74      2      Si          0.00000000     0.00000000     0.00000000
     75      2      Si          0.00000000     0.00000000     0.00000000
     76      2      Si          0.00000000     0.00000000     0.00000000
     77      2      Si          0.00000000     0.00000000     0.00000000
     78      2      Si          0.00000000     0.00000000     0.00000000
     79      2      Si          0.00000000     0.00000000     0.00000000
     80      2      Si          0.00000000     0.00000000     0.00000000
     81      2      Si          0.00000000     0.00000000     0.00000000
     82      2      Si          0.00000000     0.00000000     0.00000000
     83      2      Si          0.00000000     0.00000000     0.00000000
     84      2      Si          0.00000000     0.00000000     0.00000000
     85      2      Si          0.00000000     0.00000000     0.00000000
     86      2      Si          0.00000000     0.00000000     0.00000000
     87      2      Si          0.00000000     0.00000000     0.00000000
     88      2      Si          0.00000000     0.00000000     0.00000000
     89      2      Si          0.00000000     0.00000000     0.00000000
     90      2      Si          0.00000000     0.00000000     0.00000000
     91      2      Si          0.00000000     0.00000000     0.00000000
     92      2      Si          0.00000000     0.00000000     0.00000000
     93      2      Si          0.00000000     0.00000000     0.00000000
     94      2      Si          0.00000000     0.00000000     0.00000000
     95      2      Si          0.00000000     0.00000000     0.00000000
     96      2      Si          0.00000000     0.00000000     0.00000000
     97      2      Si          0.00000000     0.00000000     0.00000000
     98      2      Si          0.00000000     0.00000000     0.00000000
     99      2      Si          0.00000000     0.00000000     0.00000000
    100      2      Si          0.00000000     0.00000000     0.00000000
    101      2      Si          0.00000000     0.00000000     0.00000000
    102      2      Si          0.00000000     0.00000000     0.00000000
    103      2      Si          0.00000000     0.00000000     0.00000000
    104      2      Si          0.00000000     0.00000000     0.00000000
    105      2      Si          0.00000000     0.00000000     0.00000000
    106      2      Si          0.00000000     0.00000000     0.00000000
    107      2      Si          0.00000000     0.00000000     0.00000000
    108      2      Si          0.00000000     0.00000000     0.00000000
    109      2      Si          0.00000000     0.00000000     0.00000000
    110      2      Si          0.00000000     0.00000000     0.00000000
    111      2      Si          0.00000000     0.00000000     0.00000000
    112      2      Si          0.00000000     0.00000000     0.00000000
    113      2      Si          0.00000000     0.00000000     0.00000000
    114      2      Si          0.00000000     0.00000000     0.00000000
    115      2      Si          0.00000000     0.00000000     0.00000000
    116      2      Si          0.00000000     0.00000000     0.00000000
    117      2      Si          0.00000000     0.00000000     0.00000000
    118      2      Si          0.00000000     0.00000000     0.00000000
    119      2      Si          0.00000000     0.00000000     0.00000000
    120      2      Si          0.00000000     0.00000000     0.00000000
    121      2      Si          0.00000000     0.00000000     0.00000000
    122      2      Si          0.00000000     0.00000000     0.00000000
    123      2      Si          0.00000000     0.00000000     0.00000000
    124      2      Si          0.00000000     0.00000000     0.00000000
    125      2      Si          0.00000000     0.00000000     0.00000000
    126      2      Si          0.00000000     0.00000000     0.00000000
    127      2      Si          0.00000000     0.00000000     0.00000000
    128      2      Si          0.00000000     0.00000000     0.00000000
    129      2      Si          0.00000000     0.00000000     0.00000000
    130      2      Si          0.00000000     0.00000000     0.00000000
    131      2      Si          0.00000000     0.00000000     0.00000000
    132      2      Si          0.00000000     0.00000000     0.00000000
    133      2      Si          0.00000000     0.00000000     0.00000000
    134      2      Si          0.00000000     0.00000000     0.00000000
    135      2      Si          0.00000000     0.00000000     0.00000000
    136      2      Si          0.00000000     0.00000000     0.00000000
    137      2      Si          0.00000000     0.00000000     0.00000000
    138      2      Si          0.00000000     0.00000000     0.00000000
    139      2      Si          0.00000000     0.00000000     0.00000000
    140      2      Si          0.00000000     0.00000000     0.00000000
    141      2      Si          0.00000000     0.00000000     0.00000000
    142      2      Si          0.00000000     0.00000000     0.00000000
    143      2      Si          0.00000000     0.00000000     0.00000000
    144      2      Si          0.00000000     0.00000000     0.00000000
    145      2      Si          0.00000000     0.00000000     0.00000000
    146      2      Si          0.00000000     0.00000000     0.00000000
    147      2      Si          0.00000000     0.00000000     0.00000000
    148      2      Si          0.00000000     0.00000000     0.00000000
    149      2      Si          0.00000000     0.00000000     0.00000000
    150      2      Si          0.00000000     0.00000000     0.00000000
    151      2      Si          0.00000000     0.00000000     0.00000000
    152      2      Si          0.00000000     0.00000000     0.00000000
    153      2      Si          0.00000000     0.00000000     0.00000000
    154      2      Si          0.00000000     0.00000000     0.00000000
    155      2      Si          0.00000000     0.00000000     0.00000000
    156      2      Si          0.00000000     0.00000000     0.00000000
    157      2      Si          0.00000000     0.00000000     0.00000000
    158      2      Si          0.00000000     0.00000000     0.00000000
    159      2      Si          0.00000000     0.00000000     0.00000000
    160      2      Si          0.00000000     0.00000000     0.00000000
    161      2      Si          0.00000000     0.00000000     0.00000000
    162      2      Si          0.00000000     0.00000000     0.00000000
    163      2      Si          0.00000000     0.00000000     0.00000000
    164      2      Si          0.00000000     0.00000000     0.00000000
    165      2      Si          0.00000000     0.00000000     0.00000000
    166      2      Si          0.00000000     0.00000000     0.00000000
    167      2      Si          0.00000000     0.00000000     0.00000000
    168      2      Si          0.00000000     0.00000000     0.00000000
    169      2      Si          0.00000000     0.00000000     0.00000000
    170      2      Si          0.00000000     0.00000000     0.00000000
    171      2      Si          0.00000000     0.00000000     0.00000000
    172      2      Si          0.00000000     0.00000000     0.00000000
    173      2      Si          0.00000000     0.00000000     0.00000000
    174      2      Si          0.00000000     0.00000000     0.00000000
    175      2      Si          0.00000000     0.00000000     0.00000000
    176      2      Si          0.00000000     0.00000000     0.00000000
    177      2      Si          0.00000000     0.00000000     0.00000000
    178      2      Si          0.00000000     0.00000000     0.00000000
    179      2      Si          0.00000000     0.00000000     0.00000000
    180      2      Si          0.00000000     0.00000000     0.00000000
    181      2      Si          0.00000000     0.00000000     0.00000000
    182      2      Si          0.00000000     0.00000000     0.00000000
    183      2      Si          0.00000000     0.00000000     0.00000000
    184      2      Si          0.00000000     0.00000000     0.00000000
    185      2      Si          0.00000000     0.00000000     0.00000000
    186      2      Si          0.00000000     0.00000000     0.00000000
    187      2      Si          0.00000000     0.00000000     0.00000000
    188      2      Si          0.00000000     0.00000000     0.00000000
    189      2      Si          0.00000000     0.00000000     0.00000000
    190      2      Si          0.00000000     0.00000000     0.00000000
    191      2      Si          0.00000000     0.00000000     0.00000000
    192      3      O           0.00000000     0.00000000     0.00000000
    193      3      O           0.00000000     0.00000000     0.00000000
    194      3      O           0.00000000     0.00000000     0.00000000
    195      3      O           0.00000000     0.00000000     0.00000000
    196      3      O           0.00000000     0.00000000     0.00000000
    197      3      O           0.00000000     0.00000000     0.00000000
    198      3      O           0.00000000     0.00000000     0.00000000
    199      3      O           0.00000000     0.00000000     0.00000000
    200      3      O           0.00000000     0.00000000     0.00000000
    201      3      O           0.00000000     0.00000000     0.00000000
    202      3      O           0.00000000     0.00000000     0.00000000
    203      3      O           0.00000000     0.00000000     0.00000000
    204      3      O           0.00000000     0.00000000     0.00000000
    205      3      O           0.00000000     0.00000000     0.00000000
    206      3      O           0.00000000     0.00000000     0.00000000
    207      3      O           0.00000000     0.00000000     0.00000000
    208      3      O           0.00000000     0.00000000     0.00000000
    209      3      O           0.00000000     0.00000000     0.00000000
    210      3      O           0.00000000     0.00000000     0.00000000
    211      3      O           0.00000000     0.00000000     0.00000000
    212      3      O           0.00000000     0.00000000     0.00000000
    213      3      O           0.00000000     0.00000000     0.00000000
    214      3      O           0.00000000     0.00000000     0.00000000
    215      3      O           0.00000000     0.00000000     0.00000000
    216      3      O           0.00000000     0.00000000     0.00000000
    217      3      O           0.00000000     0.00000000     0.00000000
    218      3      O           0.00000000     0.00000000     0.00000000
    219      3      O           0.00000000     0.00000000     0.00000000
    220      3      O           0.00000000     0.00000000     0.00000000
    221      3      O           0.00000000     0.00000000     0.00000000
    222      3      O           0.00000000     0.00000000     0.00000000
    223      3      O           0.00000000     0.00000000     0.00000000
    224      3      O           0.00000000     0.00000000     0.00000000
    225      3      O           0.00000000     0.00000000     0.00000000
    226      3      O           0.00000000     0.00000000     0.00000000
    227      3      O           0.00000000     0.00000000     0.00000000
    228      3      O           0.00000000     0.00000000     0.00000000
    229      3      O           0.00000000     0.00000000     0.00000000
    230      3      O           0.00000000     0.00000000     0.00000000
    231      3      O           0.00000000     0.00000000     0.00000000
    232      3      O           0.00000000     0.00000000     0.00000000
    233      3      O           0.00000000     0.00000000     0.00000000
    234      3      O           0.00000000     0.00000000     0.00000000
    235      3      O           0.00000000     0.00000000     0.00000000
    236      3      O           0.00000000     0.00000000     0.00000000
    237      3      O           0.00000000     0.00000000     0.00000000
    238      3      O           0.00000000     0.00000000     0.00000000
    239      3      O           0.00000000     0.00000000     0.00000000
    240      3      O           0.00000000     0.00000000     0.00000000
    241      3      O           0.00000000     0.00000000     0.00000000
    242      3      O           0.00000000     0.00000000     0.00000000
    243      3      O           0.00000000     0.00000000     0.00000000
    244      3      O           0.00000000     0.00000000     0.00000000
    245      3      O           0.00000000     0.00000000     0.00000000
    246      3      O           0.00000000     0.00000000     0.00000000
    247      3      O           0.00000000     0.00000000     0.00000000
    248      3      O           0.00000000     0.00000000     0.00000000
    249      3      O           0.00000000     0.00000000     0.00000000
    250      3      O           0.00000000     0.00000000     0.00000000
    251      3      O           0.00000000     0.00000000     0.00000000
    252      3      O           0.00000000     0.00000000     0.00000000
    253      3      O           0.00000000     0.00000000     0.00000000
    254      3      O           0.00000000     0.00000000     0.00000000
    255      3      O           0.00000000     0.00000000     0.00000000
    256      3      O           0.00000000     0.00000000     0.00000000
    257      3      O           0.00000000     0.00000000     0.00000000
    258      3      O           0.00000000     0.00000000     0.00000000
    259      3      O           0.00000000     0.00000000     0.00000000
    260      3      O           0.00000000     0.00000000     0.00000000
    261      3      O           0.00000000     0.00000000     0.00000000
    262      3      O           0.00000000     0.00000000     0.00000000
    263      3      O           0.00000000     0.00000000     0.00000000
    264      3      O           0.00000000     0.00000000     0.00000000
    265      3      O           0.00000000     0.00000000     0.00000000
    266      3      O           0.00000000     0.00000000     0.00000000
    267      3      O           0.00000000     0.00000000     0.00000000
    268      3      O           0.00000000     0.00000000     0.00000000
    269      3      O           0.00000000     0.00000000     0.00000000
    270      3      O           0.00000000     0.00000000     0.00000000
    271      3      O           0.00000000     0.00000000     0.00000000
    272      3      O           0.00000000     0.00000000     0.00000000
    273      3      O           0.00000000     0.00000000     0.00000000
    274      3      O           0.00000000     0.00000000     0.00000000
    275      3      O           0.00000000     0.00000000     0.00000000
    276      3      O           0.00000000     0.00000000     0.00000000
    277      3      O           0.00000000     0.00000000     0.00000000
    278      3      O           0.00000000     0.00000000     0.00000000
    279      3      O           0.00000000     0.00000000     0.00000000
    280      3      O           0.00000000     0.00000000     0.00000000
    281      3      O           0.00000000     0.00000000     0.00000000
    282      3      O           0.00000000     0.00000000     0.00000000
    283      3      O           0.00000000     0.00000000     0.00000000
    284      3      O           0.00000000     0.00000000     0.00000000
    285      3      O           0.00000000     0.00000000     0.00000000
    286      3      O           0.00000000     0.00000000     0.00000000
    287      3      O           0.00000000     0.00000000     0.00000000
    288      3      O           0.00000000     0.00000000     0.00000000
    289      3      O           0.00000000     0.00000000     0.00000000
    290      3      O           0.00000000     0.00000000     0.00000000
    291      3      O           0.00000000     0.00000000     0.00000000
    292      3      O           0.00000000     0.00000000     0.00000000
    293      3      O           0.00000000     0.00000000     0.00000000
    294      3      O           0.00000000     0.00000000     0.00000000
    295      3      O           0.00000000     0.00000000     0.00000000
    296      3      O           0.00000000     0.00000000     0.00000000
    297      3      O           0.00000000     0.00000000     0.00000000
    298      3      O           0.00000000     0.00000000     0.00000000
    299      3      O           0.00000000     0.00000000     0.00000000
    300      3      O           0.00000000     0.00000000     0.00000000
    301      3      O           0.00000000     0.00000000     0.00000000
    302      3      O           0.00000000     0.00000000     0.00000000
    303      3      O           0.00000000     0.00000000     0.00000000
    304      3      O           0.00000000     0.00000000     0.00000000
    305      3      O           0.00000000     0.00000000     0.00000000
    306      3      O           0.00000000     0.00000000     0.00000000
    307      3      O           0.00000000     0.00000000     0.00000000
    308      3      O           0.00000000     0.00000000     0.00000000
    309      3      O           0.00000000     0.00000000     0.00000000
    310      3      O           0.00000000     0.00000000     0.00000000
    311      3      O           0.00000000     0.00000000     0.00000000
    312      3      O           0.00000000     0.00000000     0.00000000
    313      3      O           0.00000000     0.00000000     0.00000000
    314      3      O           0.00000000     0.00000000     0.00000000
    315      3      O           0.00000000     0.00000000     0.00000000
    316      3      O           0.00000000     0.00000000     0.00000000
    317      3      O           0.00000000     0.00000000     0.00000000
    318      3      O           0.00000000     0.00000000     0.00000000
    319      3      O           0.00000000     0.00000000     0.00000000
    320      3      O           0.00000000     0.00000000     0.00000000
    321      3      O           0.00000000     0.00000000     0.00000000
    322      3      O           0.00000000     0.00000000     0.00000000
    323      3      O           0.00000000     0.00000000     0.00000000
    324      3      O           0.00000000     0.00000000     0.00000000
    325      3      O           0.00000000     0.00000000     0.00000000
    326      3      O           0.00000000     0.00000000     0.00000000
    327      3      O           0.00000000     0.00000000     0.00000000
    328      3      O           0.00000000     0.00000000     0.00000000
    329      3      O           0.00000000     0.00000000     0.00000000
    330      3      O           0.00000000     0.00000000     0.00000000
    331      3      O           0.00000000     0.00000000     0.00000000
    332      3      O           0.00000000     0.00000000     0.00000000
    333      3      O           0.00000000     0.00000000     0.00000000
    334      3      O           0.00000000     0.00000000     0.00000000
    335      3      O           0.00000000     0.00000000     0.00000000
    336      3      O           0.00000000     0.00000000     0.00000000
    337      3      O           0.00000000     0.00000000     0.00000000
    338      3      O           0.00000000     0.00000000     0.00000000
    339      3      O           0.00000000     0.00000000     0.00000000
    340      3      O           0.00000000     0.00000000     0.00000000
    341      3      O           0.00000000     0.00000000     0.00000000
    342      3      O           0.00000000     0.00000000     0.00000000
    343      3      O           0.00000000     0.00000000     0.00000000
    344      3      O           0.00000000     0.00000000     0.00000000
    345      3      O           0.00000000     0.00000000     0.00000000
    346      3      O           0.00000000     0.00000000     0.00000000
    347      3      O           0.00000000     0.00000000     0.00000000
    348      3      O           0.00000000     0.00000000     0.00000000
    349      3      O           0.00000000     0.00000000     0.00000000
    350      3      O           0.00000000     0.00000000     0.00000000
    351      3      O           0.00000000     0.00000000     0.00000000
    352      3      O           0.00000000     0.00000000     0.00000000
    353      3      O           0.00000000     0.00000000     0.00000000
    354      3      O           0.00000000     0.00000000     0.00000000
    355      3      O           0.00000000     0.00000000     0.00000000
    356      3      O           0.00000000     0.00000000     0.00000000
    357      3      O           0.00000000     0.00000000     0.00000000
    358      3      O           0.00000000     0.00000000     0.00000000
    359      3      O           0.00000000     0.00000000     0.00000000
    360      3      O           0.00000000     0.00000000     0.00000000
    361      3      O           0.00000000     0.00000000     0.00000000
    362      3      O           0.00000000     0.00000000     0.00000000
    363      3      O           0.00000000     0.00000000     0.00000000
    364      3      O           0.00000000     0.00000000     0.00000000
    365      3      O           0.00000000     0.00000000     0.00000000
    366      3      O           0.00000000     0.00000000     0.00000000
[...]
 flops  2025 x   288 x   160        5102673408000       0.0%    100.0%      0.0%
 flops  2028 x   288 x   160        5110232924160       0.0%    100.0%      0.0%
 flops  2025 x   268 x   675        5200314210000       0.0%    100.0%      0.0%
 flops  2028 x   268 x   675        5208018379200       0.0%    100.0%      0.0%
 flops  2033 x   256 x   160        6071504732160       0.0%    100.0%      0.0%
 flops    13 x    32 x     5        6148461296640       0.0%    100.0%      0.0%
 flops     5 x    32 x    13        6148461296640       0.0%    100.0%      0.0%
 flops  2025 x   256 x   128        6450787123200       0.0%    100.0%      0.0%
 flops  2028 x   256 x   128        6460343844864       0.0%    100.0%      0.0%
 flops  2033 x   268 x   128        6779846950912       0.0%    100.0%      0.0%
 flops   416 x   268 x   675        7114701484800       0.0%    100.0%      0.0%
 flops   396 x   288 x   675        7278070060800       0.0%    100.0%      0.0%
 flops   416 x   288 x   128        7488348880896       0.0%    100.0%      0.0%
 flops    13 x    13 x   160        8897807168640       0.0%    100.0%      0.0%
 flops  2025 x   256 x   675        9934928640000       0.0%    100.0%      0.0%
 flops  2028 x   256 x   675        9949647052800       0.0%    100.0%      0.0%
 flops  2033 x   288 x   160       10245664235520       0.0%    100.0%      0.0%
 flops  2033 x   268 x   675       10441717322400       0.0%    100.0%      0.0%
 flops  2025 x   288 x   128       10885703270400       0.0%    100.0%      0.0%
 flops  2028 x   288 x   128       10901830238208       0.0%    100.0%      0.0%
 flops  2033 x   256 x   128       12952543428608       0.0%    100.0%      0.0%
 flops   416 x   256 x   675       13592265523200       0.0%    100.0%      0.0%
 flops  2025 x   288 x   675       16765192080000       0.0%    100.0%      0.0%
 flops  2028 x   288 x   675       16790029401600       0.0%    100.0%      0.0%
 flops    13 x    13 x   128       18981988626432       0.0%    100.0%      0.0%
 flops  2033 x   256 x   675       19948355481600       0.0%    100.0%      0.0%
 flops  2033 x   288 x   128       21857417035776       0.0%    100.0%      0.0%
 flops   416 x   288 x   675       22936948070400       0.0%    100.0%      0.0%
 flops  2033 x   288 x   675       33662849875200       0.0%    100.0%      0.0%
 flops    13 x    32 x    13      119935624560960       0.0%    100.0%      0.0%
 flops inhomo. stacks              82867959567360     100.0%      0.0%      0.0%
 flops total                       653.245882E+12      12.7%     87.3%      0.0%
 flops max/rank                     28.753402E+12      12.7%     87.3%      0.0%
 matmuls inhomo. stacks                    235080     100.0%      0.0%      0.0%
 matmuls total                        15558034868       0.0%    100.0%      0.0%
 number of processed stacks              21260919       1.1%     98.9%      0.0%
 average stack size                                     1.0     739.9       0.0
 marketing flops                     1.106459E+15
 -------------------------------------------------------------------------------
 # multiplications                          12666
 max memory usage/rank             984.854528E+06
 # max total images/rank                        3
 # max 3D layers                                1
 # MPI messages exchanged                 5775696
 MPI messages size (bytes):
  total size                        10.428857E+12
  min size                           0.000000E+00
  max size                          11.449856E+06
  average size                       1.805645E+06
 MPI breakdown and total messages size (bytes):
             size <=      128               36252                        0
       128 < size <=     8192                   0                        0
      8192 < size <=    32768                1368                 44826624
     32768 < size <=   131072                 684                 26812800
    131072 < size <=  4194304             5494032            7754376879928
   4194304 < size <= 16777216              243360            2673640610160
  16777216 < size                               0                        0
 -------------------------------------------------------------------------------

 *** WARNING in dbcsr_mm.F:294 :: Using a non-square number of MPI ranks ***
 *** might lead to poor performance. Used ranks: 24 Suggested: 25 49     ***

 -------------------------------------------------------------------------------
 -                                                                             -
 -                      DBCSR MESSAGE PASSING PERFORMANCE                      -
 -                                                                             -
 -------------------------------------------------------------------------------
 ROUTINE             CALLS      AVE VOLUME [Bytes]
 MP_Bcast              142                     12.
 MP_Allreduce        63867                    111.
 MP_Alltoall         57599                 811355.
 MP_ISend           582536                 816823.
 MP_IRecv           573396                 822660.
 -------------------------------------------------------------------------------

 -------------------------------------------------------------------------------
 -                                                                             -
 -                                GRID STATISTICS                              -
 -                                                                             -
 -------------------------------------------------------------------------------
 LP    KERNEL             BACKEND                              COUNT     PERCENT
 4     collocate ortho    REF                              261885610      50.37%
 4     integrate ortho    REF                              130942805      25.18%
 3     collocate ortho    REF                               54835642      10.55%
 3     integrate ortho    REF                               27417821       5.27%
 7     integrate ortho    REF                               16004458       3.08%
 2     collocate ortho    REF                               13564714       2.61%
 2     integrate ortho    REF                                6782357       1.30%
 6     integrate ortho    REF                                3367163       0.65%
 5     integrate ortho    REF                                1636482       0.31%
 5     collocate ortho    REF                                1612862       0.31%
 0     collocate general  REF                                 884352       0.17%
 3     integrate general  REF                                 868560       0.17%
 8     integrate ortho    REF                                  98569       0.02%
 6     collocate ortho    REF                                  32400       0.01%
 9     integrate ortho    REF                                   1980       0.00%
 -------------------------------------------------------------------------------

 MEMORY| Estimated peak process memory [MiB]                                 940

 -------------------------------------------------------------------------------
 -                                                                             -
 -                         MESSAGE PASSING PERFORMANCE                         -
 -                                                                             -
 -------------------------------------------------------------------------------

 ROUTINE             CALLS      AVE VOLUME [Bytes]
 MP_Group                5
 MP_Bcast            35452                 238631.
 MP_Allreduce        95832                   1246.
 MP_Sync               731
 MP_Alltoall         15559               33866110.
 MP_SendRecv          5060                  16210.
 MP_ISendRecv        96945                 127093.
 MP_Wait            191711
 MP_ISend            84598                 806101.
 MP_IRecv            84598                 806264.
 MP_Recv              7155                1377980.
 -------------------------------------------------------------------------------


 -------------------------------------------------------------------------------
 -                                                                             -
 -                           R E F E R E N C E S                               -
 -                                                                             -
 -------------------------------------------------------------------------------
 
 CP2K version 9.1, the CP2K developers group (2021).
 CP2K is freely available from https://www.cp2k.org/ .

 Kuehne,Thomas D.; Iannuzzi,Marcella; Del Ben,Mauro;
 Rybkin,Vladimir V.; Seewald,Patrick; Stein,Frederick; Laino,Teodoro;
 Khaliullin,Rustam Z.; Schuett,Ole; Schiffmann,Florian; Golze,Dorothea;
 Wilhelm,Jan; Chulkov,Sergey; Bani-Hashemian,Mohammad Hossein;
 Weber,Valery; Borstnik,Urban; Taillefumier,Mathieu;
 Jakobovits,Alice Shoshana; Lazzaro,Alfio; Pabst,Hans; Mueller,Tiziano;
 Schade,Robert; Guidon,Manuel; Andermatt,Samuel; Holmberg,Nico;
 Schenter,Gregory K.; Hehn,Anna; Bussy,Augustin; Belleflamme,Fabian;
 Tabacchi,Gloria; Gloess,Andreas; Lass,Michael; Bethune,Iain;
 Mundy,Christopher J.; Plessl,Christian; Watkins,Matt;
 VandeVondele,Joost; Krack,Matthias; Hutter,Juerg. 
 The Journal of Chemical Physics, 152 (19), (2020). 
 CP2K: An electronic structure and molecular dynamics software package -
 Quickstep: Efficient and accurate electronic structure calculations.
 https://doi.org/10.1063/5.0007045

 Goerigk, Lars; Hansen, Andreas; Bauer, Christoph; Ehrlich, Stephan;
 Najibi, Asim; Grimme, Stefan. , 19 (48), (2017). 
 A look at the density functional theory zoo with the advanced GMTKN55 database
 for general main group thermochemistry, kinetics and noncovalent interactions.
 https://doi.org/10.1039/C7CP04913G

 Schuett, Ole; Messmer, Peter; Hutter, Juerg; VandeVondele, Joost. 
 Electronic Structure Calculations on Graphics Processing Units, John
 Wiley & Sons, Ltd, 173-190 (2016). 
 GPU-Accelerated Sparse Matrix-Matrix Multiplication for
 Linear Scaling Density Functional Theory.
 https://doi.org/10.1002/9781118670712.ch8

 Heinecke, A; Henry, G; Hutchinson, M; Pabst, H. 
 Proceedings of Intl. Supercomputing Conference, 981-991 (2016). 
 LIBXSMM: Accelerating Small Matrix Multiplications
 by Runtime Code Generation.
 https://doi.org/10.1109/SC.2016.83

 Borstnik, U; VandeVondele, J; Weber, V; Hutter, J. 
 PARALLEL COMPUTING, 40 (5-6), 47-58 (2014). 
 Sparse matrix multiplication: The distributed block-compressed sparse
 row library.
 https://doi.org/10.1016/j.parco.2014.03.012

 Hutter, J; Iannuzzi, M; Schiffmann, F; VandeVondele, J. 
 WIREs Comput Mol Sci., 4 (1), 15-25 (2014). 
 CP2K: atomistic simulations of condensed matter systems.
 https://doi.org/10.1002/wcms.1159

 Grimme, S; Ehrlich, S; Goerigk, L. 
 JOURNAL OF COMPUTATIONAL CHEMISTRY, 32, 1456 (2011). 
 Effect of the damping function in dispersion corrected density functional theory.
 https://doi.org/10.1002/jcc.21759

 Grimme, S; Antony, J; Ehrlich, S; Krieg, H. 
 JOURNAL OF CHEMICAL PHYSICS, 132 (15), 154104 (2010). 
 A consistent and accurate ab initio parametrization of density
 functional dispersion correction (DFT-D) for the 94 elements H-Pu.
 https://doi.org/10.1063/1.3382344

 VandeVondele, J; Hutter, J. 
 JOURNAL OF CHEMICAL PHYSICS, 127 (11), 114105 (2007). 
 Gaussian basis sets for accurate calculations on molecular systems in
 gas and condensed phases.
 https://doi.org/10.1063/1.2770708

 Kuhne, TD; Krack, M; Mohamed, FR; Parrinello, M. 
 PHYSICAL REVIEW LETTERS, 98 (6), 066401 (2007). 
 Efficient and accurate Car-Parrinello-like approach to
 Born-Oppenheimer molecular dynamics.
 https://doi.org/10.1103/PhysRevLett.98.066401

 Krack, M. 
 THEORETICAL CHEMISTRY ACCOUNTS, 114 (1-3), 145-152 (2005). 
 Pseudopotentials for H to Kr optimized for gradient-corrected
 exchange-correlation functionals.
 https://doi.org/10.1007/s00214-005-0655-y

 VandeVondele, J; Krack, M; Mohamed, F; Parrinello, M; Chassaing, T;
 Hutter, J. COMPUTER PHYSICS COMMUNICATIONS, 167 (2), 103-128 (2005). 
 QUICKSTEP: Fast and accurate density functional calculations using a
 mixed Gaussian and plane waves approach.
 https://doi.org/10.1016/j.cpc.2004.12.014

 Frigo, M; Johnson, SG. 
 PROCEEDINGS OF THE IEEE, 93 (2), 216-231 (2005). 
 The design and implementation of FFTW3.
 https://doi.org/10.1109/JPROC.2004.840301

 Kolafa, J. 
 JOURNAL OF COMPUTATIONAL CHEMISTRY, 25 (3), 335-342 (2004). 
 Time-reversible always stable predictor-corrector method for
 molecular dynamics of polarizable molecules.
 https://doi.org/10.1002/jcc.10385

 VandeVondele, J; Hutter, J. 
 JOURNAL OF CHEMICAL PHYSICS, 118 (10), 4365-4369 (2003). 
 An efficient orbital transformation method for electronic structure
 calculations.
 https://doi.org/10.1063/1.1543154

 Hartwigsen, C; Goedecker, S; Hutter, J. 
 PHYSICAL REVIEW B, 58 (7), 3641-3662 (1998). 
 Relativistic separable dual-space Gaussian pseudopotentials from H to Rn.
 https://doi.org/10.1103/PhysRevB.58.3641

 Lippert, G; Hutter, J; Parrinello, M. 
 MOLECULAR PHYSICS, 92 (3), 477-487 (1997). 
 A hybrid Gaussian and plane wave density functional scheme.
 https://doi.org/10.1080/002689797170220

 Perdew, JP; Burke, K; Ernzerhof, M. 
 PHYSICAL REVIEW LETTERS, 77 (18), 3865-3868 (1996). 
 Generalized gradient approximation made simple.
 https://doi.org/10.1103/PhysRevLett.77.3865

 Goedecker, S; Teter, M; Hutter, J. 
 PHYSICAL REVIEW B, 54 (3), 1703-1710 (1996). 
 Separable dual-space Gaussian pseudopotentials.
 https://doi.org/10.1103/PhysRevB.54.1703


 -------------------------------------------------------------------------------
 -                                                                             -
 -                                T I M I N G                                  -
 -                                                                             -
 -------------------------------------------------------------------------------
 SUBROUTINE                       CALLS  ASD         SELF TIME        TOTAL TIME
                                MAXIMUM       AVERAGE  MAXIMUM  AVERAGE  MAXIMUM
 CP2K                                 1  1.0    0.032    0.036 9827.210 9827.228
 cp_geo_opt                           1  2.0    0.001    0.001 9825.802 9825.827
 geoopt_bfgs                          1  3.0    0.256    0.289 9825.801 9825.826
 cp_eval_at                          56  4.0    0.258    0.340 9789.336 9789.363
 qs_forces                           55  5.0    0.018    0.019 9724.491 9724.509
 qs_energies                         56  6.0    0.006    0.009 9142.898 9143.116
 scf_env_do_scf                      56  7.0    0.003    0.006 8750.060 8750.125
 scf_env_do_scf_inner_loop          844  8.0    0.019    0.060 6622.085 6634.573
 rebuild_ks_matrix                  899  9.8    0.005    0.006 3416.335 3418.872
 qs_ks_build_kohn_sham_matrix       899 10.8    0.131    0.143 3416.330 3418.867
 qs_ks_update_qs_env                901  9.0    0.007    0.008 2910.920 2913.184
 dbcsr_multiply_generic           12666 13.7    0.982    1.050 2340.870 2356.468
 qs_scf_new_mos                     844  9.0    0.006    0.009 2201.013 2206.502
 qs_scf_loop_do_ot                  844 10.0    0.007    0.007 2201.007 2206.496
 init_scf_loop                       57  8.0    0.003    0.004 2114.023 2114.083
 ot_scf_mini                        844 11.0    0.039    0.046 2049.539 2052.647
 multiply_cannon                  12666 14.7    1.353    1.527 1981.843 2021.034
 multiply_cannon_loop             12666 15.7    2.068    2.285 1912.858 1955.492
 qs_rho_update_rho                  900  9.1    0.005    0.005 1919.264 1922.943
 calculate_rho_elec                 900 10.1    3.921    3.963 1919.259 1922.939
 prepare_preconditioner              57  9.0    0.001    0.001 1782.885 1783.252
 sum_up_and_integrate               505 11.7    2.432    2.502 1734.577 1735.056
 integrate_v_rspace                 505 12.7    0.021    0.024 1732.144 1732.650
 make_preconditioner                 57 10.0    0.002    0.002 1720.761 1721.073
 make_full_all                       57 11.0    0.098    0.125 1669.368 1670.569
 multiply_cannon_multrec         151992 16.7 1536.622 1619.946 1536.825 1620.146
 grid_integrate_task_list           505 13.7 1492.662 1502.691 1492.662 1502.691
 grid_collocate_task_list           900 11.1 1407.317 1438.000 1407.317 1438.000
 qs_vxc_create                      899 11.8    0.019    0.021 1373.510 1373.955
 pw_transfer                      15001 13.3    1.191    1.350 1286.025 1303.889
 fft_wrap_pw1pw2                  13203 14.3    0.179    0.201 1266.689 1284.601
 fft_wrap_pw1pw2_180               7583 15.6  107.980  109.075 1223.698 1239.263
 ot_mini                            844 12.0    0.007    0.009 1221.014 1224.900
 cp_fm_syevd                        726 13.5    0.014    0.016 1204.716 1205.609
 cp_fm_syevd_base                   726 14.5 1196.568 1196.761 1196.568 1196.761
 fft3d_ps                         13203 16.3  535.643  545.909  949.715  970.595
 xc_rho_set_and_dset_create         899 13.8    7.362    7.450  962.223  968.390
 xc_vxc_pw_create                   505 12.7   35.593   38.809  948.681  949.126
 apply_preconditioner_dbcsr         507 14.0    0.001    0.002  711.792  718.602
 apply_all                          507 15.0    0.864    0.917  711.791  718.601
 ot_new_cg_direction                450 13.0    0.010    0.012  643.560  643.583
 qs_ot_get_derivative               450 13.0    0.006    0.008  572.939  575.726
 mp_waitall_1                    816409 17.5  462.701  537.945  462.701  537.945
 density_rs2pw                      900 11.1    0.066    0.075  490.733  509.571
 qs_ks_update_qs_env_forces          55  6.0    0.000    0.000  508.599  508.838
 xc_functional_eval                 899 14.8    0.012    0.016  440.589  446.774
 pbe_lda_eval                       899 15.8  440.577  446.758  440.577  446.758
 multiply_cannon_metrocomm3      151992 16.7    0.528    0.629  361.595  433.042
 xc_exc_calc                        394 13.0    1.667    1.680  424.810  424.840
 qs_ot_get_p                        901 11.9    0.007    0.008  341.902  348.172
 rs_pw_transfer                    7136 12.9    0.107    0.122  282.940  305.166
 init_scf_run                        56  7.0    0.001    0.004  298.276  298.284
 scf_env_initial_rho_setup           56  8.0    0.001    0.002  298.274  298.283
 wfi_extrapolate                     56  9.0    0.008    0.011  293.581  293.582
 cp_gemm                            927 10.2    0.003    0.004  289.207  291.432
 cp_gemm_fm_gemm                    927 11.2    0.003    0.004  289.204  291.429
 cp_fm_gemm                         927 12.2  289.201  291.426  289.201  291.426
 x_to_yz                           6627 18.1  199.694  200.759  266.567  271.240
 qs_ot_get_orbitals                 844 12.0    0.006    0.008  265.280  267.617
 make_m2s                         25332 14.7    0.951    1.046  263.344  265.410
 cp_fm_cholesky_reduce               57 12.0  225.965  226.537  225.965  226.537
 qs_ot_get_derivative_diag          249 14.0    0.009    0.011  212.810  214.430
 potential_pw2rs                    505 13.7    0.186    0.259  213.447  213.800
 -------------------------------------------------------------------------------

 The number of warnings for this run is : 2
 
 -------------------------------------------------------------------------------
  **** **** ******  **  PROGRAM ENDED AT                 2022-09-04 20:32:57.409
 ***** ** ***  *** **   PROGRAM RAN ON             node1332.palmetto.clemson.edu
 **    ****   ******    PROGRAM RAN BY                                   xiutinc
 ***** **    ** ** **   PROGRAM PROCESS ID                               3765508
  **** **  *******  **  PROGRAM STOPPED IN    /scratch1/xiutinc/CP2K-97010.pbs02
