ITEM: TIMESTEP
1500000
ITEM: NUMBER OF ATOMS
4768
ITEM: BOX BOUNDS xy xz yz pp pp pp
0.0000000000000000e+00 2.4433001000000001e+01 0.0000000000000000e+00
0.0000000000000000e+00 2.4433001000000001e+01 0.0000000000000000e+00
0.0000000000000000e+00 8.7675772958794497e+01 0.0000000000000000e+00
ITEM: ATOMS id mol type q x y z
1 1 1 -0.834 8.8617 2.31806 45.4833
2 1 1 -0.834 13.986 2.06503 20.2536
3 1 1 -0.834 21.6857 6.83443 82.142
4 1 1 -0.834 8.37816 1.09599 73.6439
5 1 1 -0.834 9.73729 10.9915 51.2496
6 1 1 -0.834 18.6229 11.8784 43.48
7 1 1 -0.834 23.7102 13.7171 62.4693
8 1 1 -0.834 7.57247 12.942 74.894
9 1 1 -0.834 2.23319 21.2774 58.4806
10 1 1 -0.834 2.19024 18.3718 61.2689
11 1 1 -0.834 15.3336 7.81669 84.3229
12 1 1 -0.834 9.79772 14.467 75.297
13 1 1 -0.834 23.7685 20.5881 29.6742
14 1 1 -0.834 10.1005 24.3228 42.222
15 1 1 -0.834 6.03364 24.4203 47.0139
16 1 1 -0.834 1.33976 24.0446 34.3794
17 1 1 -0.834 12.5486 15.3697 49.0011
18 1 1 -0.834 5.23874 14.7068 74.6226
19 1 1 -0.834 19.9036 4.59695 58.9475
20 1 1 -0.834 16.008 16.4772 72.9831
21 1 1 -0.834 1.50538 22.9181 43.7869
22 1 1 -0.834 16.6025 1.34154 20.2581
23 1 1 -0.834 22.8929 8.16815 74.7151
24 1 1 -0.834 2.25941 5.68654 46.5395
25 1 1 -0.834 13.8742 3.25367 63.5244
26 1 1 -0.834 1.50532 7.76192 72.5108
27 1 1 -0.834 8.84368 9.06481 46.6068
28 1 1 -0.834 23.3285 14.7964 66.8062
29 1 1 -0.834 20.3141 24.0412 72.0108
30 1 1 -0.834 22.6898 0.742968 43.9088
31 1 1 -0.834 13.5815 12.0801 78.7353
32 1 1 -0.834 11.7273 0.432192 49.7017
33 1 1 -0.834 18.1596 14.254 70.0186
34 1 1 -0.834 1.64312 23.5499 6.12326
35 1 1 -0.834 10.5289 3.54017 75.3569
36 1 1 -0.834 6.52911 5.34317 53.6639
37 1 1 -0.834 12.8296 6.45644 49.3909
38 1 1 -0.834 23.6322 2.61318 50.9883
39 1 1 -0.834 1.01086 0.82261 66.5879
40 1 1 -0.834 9.58651 13.8617 27.3153
41 1 1 -0.834 21.2965 8.68392 72.2686
42 1 1 -0.834 4.79852 14.6163 80.8101
43 1 1 -0.834 16.1774 7.79705 62.3247
44 1 1 -0.834 23.0388 9.87279 14.857
45 1 1 -0.834 19.3453 14.7008 45.2417
46 1 1 -0.834 8.86388 23.1905 17.6296
47 1 1 -0.834 5.72557 5.99023 9.03205
48 1 1 -0.834 19.1918 2.38831 82.7958
49 1 1 -0.834 7.77893 23.1753 63.7347
50 1 1 -0.834 20.0701 17.7648 29.1904
51 1 1 -0.834 7.44781 15.3887 58.6581
52 1 1 -0.834 0.90397 1.91746 30.8954
53 1 1 -0.834 16.909 10.805 36.7611
54 1 1 -0.834 2.59078 3.86307 34.9999
55 1 1 -0.834 19.2364 0.625033 2.1587
56 1 1 -0.834 13.3581 17.9817 33.5784
57 1 1 -0.834 13.2397 10.5312 5.63246
58 1 1 -0.834 10.783 8.34714 55.7295
59 1 1 -0.834 16.7757 16.1915 53.6445
60 1 1 -0.834 18.0604 14.5811 58.1195
61 1 1 -0.834 7.56065 4.94923 57.0395
62 1 1 -0.834 16.6303 8.63494 14.7274
63 1 1 -0.834 0.957752 6.80902 35.7202
64 1 1 -0.834 11.756 23.1926 45.9679
65 1 1 -0.834 13.2119 22.3329 59.3716
66 1 1 -0.834 3.3739 2.26916 68.9234
67 1 1 -0.834 11.2693 13.4455 59.3636
68 1 1 -0.834 3.55964 10.075 78.941
69 1 1 -0.834 6.7082 1.32799 60.3757
70 1 1 -0.834 12.9532 4.38867 21.3035
71 1 1 -0.834 11.1647 20.8515 38.8054
72 1 1 -0.834 18.9023 7.81027 62.4121
73 1 1 -0.834 7.33452 22.563 81.0591
74 1 1 -0.834 17.6495 7.23438 57.1974
75 1 1 -0.834 2.99155 15.923 82.8876
76 1 1 -0.834 13.6969 14.6153 45.1077
77 1 1 -0.834 14.4271 22.8471 47.9418
78 1 1 -0.834 19.291 3.33175 50.2048
79 1 1 -0.834 1.87566 14.5688 85.1225
80 1 1 -0.834 13.3173 0.785063 23.6613
81 1 1 -0.834 12.9835 8.98544 50.9585
82 1 1 -0.834 1.1813 1.26452 61.054
83 1 1 -0.834 7.6112 1.88399 64.3263
84 1 1 -0.834 4.83819 7.55759 43.6412
85 1 1 -0.834 9.27892 9.51247 7.16357
86 1 1 -0.834 9.81921 11.0711 55.11
87 1 1 -0.834 7.11581 4.09484 77.0562
88 1 1 -0.834 6.61458 7.73555 50.9034
89 1 1 -0.834 23.2731 6.47515 70.7977
90 1 1 -0.834 24.2027 14.211 46.7708
91 1 1 -0.834 10.3194 10.917 62.123
92 1 1 -0.834 17.3042 15.1643 50.1951
93 1 1 -0.834 12.4525 8.53942 76.768
94 1 1 -0.834 10.0447 18.5779 56.4137
95 1 1 -0.834 20.8029 20.4333 67.1792
96 1 1 -0.834 23.5757 22.4722 6.60941
97 1 1 -0.834 14.8705 22.1504 45.5473
98 1 1 -0.834 9.06767 6.70498 51.2489
99 1 1 -0.834 6.07394 6.91237 2.03832
100 1 1 -0.834 8.99721 6.38378 54.391
101 1 1 -0.834 9.5516 9.91723 65.166
102 1 1 -0.834 0.0495321 8.99666 79.4434
103 1 1 -0.834 1.37665 10.9299 76.6488
104 1 1 -0.834 0.634765 20.6641 77.3513
105 1 1 -0.834 22.8702 2.32305 60.4229
106 1 1 -0.834 0.534678 17.4768 69.2882
107 1 1 -0.834 3.71163 7.42688 58.0282
108 1 1 -0.834 21.3265 7.92989 78.6076
109 1 1 -0.834 20.4106 8.42809 36.1776
110 1 1 -0.834 6.85596 2.49552 35.9
111 1 1 -0.834 17.633 9.48525 79.5548
112 1 1 -0.834 16.7043 8.85653 39.3259
113 1 1 -0.834 7.14111 5.52195 71.9953
114 1 1 -0.834 15.1278 2.8622 41.0141
115 1 1 -0.834 15.3662 2.51683 67.5164
116 1 1 -0.834 3.15099 16.1729 78.2391
117 1 1 -0.834 19.6607 17.7342 50.2752
118 1 1 -0.834 10.2476 0.341109 14.7346
119 1 1 -0.834 18.7838 11.0852 38.7478
120 1 1 -0.834 22.8418 8.69942 50.9686
121 1 1 -0.834 6.70974 11.2713 45.4655
122 1 1 -0.834 14.5285 4.67028 23.5409
123 1 1 -0.834 23.6564 5.06299 57.9996
124 1 1 -0.834 7.91277 23.5212 11.6624
125 1 1 -0.834 24.0757 7.58365 41.5034
126 1 1 -0.834 22.2851 24.2449 46.5861
127 1 1 -0.834 17.04 13.8683 67.1954
128 1 1 -0.834 13.2604 2.58042 48.9761
129 1 1 -0.834 19.3616 22.2349 74.024
130 1 1 -0.834 16.2094 16.026 9.68155
131 1 1 -0.834 1.83669 8.08396 59.8787
132 1 1 -0.834 16.8096 20.359 70.9303
133 1 1 -0.834 3.81937 18.4795 43.2517
134 1 1 -0.834 9.88881 8.03583 86.3478
135 1 1 -0.834 8.3164 18.6642 18.6319
136 1 1 -0.834 5.65337 3.80987 69.959
137 1 1 -0.834 13.57 6.24464 81.2938
138 1 1 -0.834 18.196 8.11251 46.8157
139 1 1 -0.834 9.58423 12.1712 45.7299
140 1 1 -0.834 7.81827 0.760992 57.7479
141 1 1 -0.834 14.6428 14.7755 79.8305
142 1 1 -0.834 11.1428 19.6173 64.376
143 1 1 -0.834 22.4349 17.9247 72.4648
144 1 1 -0.834 0.379714 11.132 82.4214
145 1 1 -0.834 3.43695 13.7693 61.607
146 1 1 -0.834 10.4409 3.28165 72.357
147 1 1 -0.834 5.86579 16.3666 49.1823
148 1 1 -0.834 6.74562 18.1889 83.3423
149 1 1 -0.834 18.4875 7.74846 82.3339
150 1 1 -0.834 21.779 6.43715 43.9845
151 1 1 -0.834 0.409071 12.8287 69.3809
152 1 1 -0.834 13.6014 2.04982 45.9459
153 1 1 -0.834 15.0526 5.9206 75.0582
154 1 1 -0.834 5.05072 8.97928 62.0238
155 1 1 -0.834 10.2631 5.62435 48.7404
156 1 1 -0.834 10.3668 8.26047 2.99591
157 1 1 -0.834 11.7746 4.89725 58.768
158 1 1 -0.834 24.1228 14.2897 22.8338
159 1 1 -0.834 15.0345 17.868 70.5667
160 1 1 -0.834 2.26011 21.7808 51.3237
161 1 1 -0.834 12.3942 7.67027 64.3484
162 1 1 -0.834 18.4252 7.40846 77.5357
163 1 1 -0.834 7.59165 17.0127 72.1254
164 1 1 -0.834 10.5672 20.5575 68.1978
165 1 1 -0.834 12.8224 19.3545 69.006
166 1 1 -0.834 21.6438 1.81181 26.7812
167 1 1 -0.834 14.1336 0.088356 42.9801
168 1 1 -0.834 9.90436 21.62 62.5017
169 1 1 -0.834 14.829 2.93817 84.9507
170 1 1 -0.834 13.181 11.4111 28.4572
171 1 1 -0.834 6.16981 8.04034 29.1833
172 1 1 -0.834 16.2989 1.80802 63.3463
173 1 1 -0.834 9.56369 15.8105 41.7713
174 1 1 -0.834 13.8169 2.51236 53.5943
175 1 1 -0.834 18.6755 18.7703 1.81574
176 1 1 -0.834 16.6132 6.16078 47.9619
177 1 1 -0.834 18.832 16.1921 60.3826
178 1 1 -0.834 8.72866 2.20752 41.6086
179 1 1 -0.834 1.77547 21.3247 2.97945
180 1 1 -0.834 14.8833 5.85218 78.3516
181 1 1 -0.834 4.96777 4.86217 73.6278
182 1 1 -0.834 20.4208 23.965 87.5511
183 1 1 -0.834 9.25234 7.19771 76.4402
184 1 1 -0.834 11.7173 19.2031 41.3582
185 1 1 -0.834 8.19034 17.0115 14.1971
186 1 1 -0.834 5.51008 13.5892 63.1278
187 1 1 -0.834 16.6068 10.4632 62.8461
188 1 1 -0.834 21.7355 3.2988 42.4148
189 1 1 -0.834 3.35126 16.481 51.7426
190 1 1 -0.834 23.4576 1.03797 33.3075
191 1 1 -0.834 16.7678 21.6991 48.7422
192 1 1 -0.834 16.76 5.67763 85.6742
193 1 1 -0.834 20.9674 18.7838 70.3653
194 1 1 -0.834 6.84792 19.9044 36.8004
195 1 1 -0.834 1.45654 23.2347 30.0724
196 1 1 -0.834 7.44006 5.65519 4.37646
197 1 1 -0.834 15.501 23.0608 54.8431
198 1 1 -0.834 22.426 24.1669 79.433
199 1 1 -0.834 4.5638 16.7982 84.886
200 1 1 -0.834 20.1413 11.5773 56.3615
201 1 1 -0.834 9.62441 14.241 65.3289
202 1 1 -0.834 3.53457 5.90099 65.9182
203 1 1 -0.834 5.33187 17.7914 79.7144
204 1 1 -0.834 22.5393 19.786 63.4237
205 1 1 -0.834 15.8112 3.0331 73.2185
206 1 1 -0.834 12.635 5.32039 62.0057
207 1 1 -0.834 8.57017 4.36765 2.40901
208 1 1 -0.834 15.6 17.0423 64.7219
209 1 1 -0.834 5.55468 23.4021 44.2327
210 1 1 -0.834 21.1493 0.735989 62.8926
211 1 1 -0.834 21.2448 8.38914 48.0675
212 1 1 -0.834 3.40521 13.5901 76.5643
213 1 1 -0.834 2.39511 9.21685 50.864
214 1 1 -0.834 17.8994 6.19342 52.8383
215 1 1 -0.834 17.5938 2.88485 24.9331
216 1 1 -0.834 1.06229 13.3645 74.1445
217 1 1 -0.834 22.3678 11.7734 70.5179
218 1 1 -0.834 6.53933 5.46993 49.5368
219 1 1 -0.834 16.555 11.3842 77.8626
220 1 1 -0.834 8.46187 5.78926 30.5747
221 1 1 -0.834 15.5204 20.957 43.1396
222 1 1 -0.834 17.7775 20.1874 4.31043
223 1 1 -0.834 17.5248 2.42724 0.453809
224 1 1 -0.834 0.0672202 6.14248 43.814
225 1 1 -0.834 13.079 12.7224 61.37
226 1 1 -0.834 17.0711 12.7199 53.9037
227 1 1 -0.834 20.4193 22.5767 57.8709
228 1 1 -0.834 19.422 10.5608 45.8074
229 1 1 -0.834 0.710754 8.60894 55.1779
230 1 1 -0.834 16.1653 20.9523 61.7489
231 1 1 -0.834 15.084 7.75974 52.2418
232 1 1 -0.834 22.0899 16.4357 68.5019
233 1 1 -0.834 18.4183 20.6824 29.5483
234 1 1 -0.834 6.71741 9.71799 42.7963
235 1 1 -0.834 0.666406 1.26997 55.5862
236 1 1 -0.834 23.7255 22.4337 67.4895
237 1 1 -0.834 2.3252 3.34203 66.5203
238 1 1 -0.834 3.30923 7.89178 9.59809
239 1 1 -0.834 11.6233 0.864877 21.5724
240 1 1 -0.834 21.8129 6.83288 39.9794
241 1 1 -0.834 0.816872 3.65343 45.2208
242 1 1 -0.834 19.5603 22.9908 76.8761
243 1 1 -0.834 3.45341 23.9273 68.6176
244 1 1 -0.834 22.1673 6.94523 17.1588
245 1 1 -0.834 7.52311 11.606 49.5627
246 1 1 -0.834 10.687 12.2339 79.5473
247 1 1 -0.834 6.73331 11.3568 29.5964
248 1 1 -0.834 5.05255 2.36235 64.2971
249 1 1 -0.834 9.98746 21.1528 52.3366
250 1 1 -0.834 22.5203 18.0067 24.1963
251 1 1 -0.834 24.4226 23.7928 3.75927
252 1 1 -0.834 18.4331 8.4253 43.3298
253 1 1 -0.834 14.9471 4.09038 55.7053
254 1 1 -0.834 4.02199 10.2811 43.8854
255 1 1 -0.834 13.2983 4.16432 73.7467
256 1 1 -0.834 2.17628 19.5894 74.7594
257 1 1 -0.834 5.53967 2.22748 74.4443
258 1 1 -0.834 11.1136 17.9551 44.3614
259 1 1 -0.834 19.5956 6.70048 69.1588
260 1 1 -0.834 22.2279 3.1535 67.2468
261 1 1 -0.834 23.9895 6.58245 53.5098
262 1 1 -0.834 15.7538 3.20952 51.419
263 1 1 -0.834 5.90106 18.6918 70.088
264 1 1 -0.834 7.50847 18.9884 66.6506
265 1 1 -0.834 12.3743 14.5966 30.4978
266 1 1 -0.834 9.2388 12.5523 67.6648
267 1 1 -0.834 2.38588 3.8401 75.1971
268 1 1 -0.834 10.2089 12.7114 29.8762
269 1 1 -0.834 14.226 13.6549 66.1113
270 1 1 -0.834 11.1383 3.2944 54.1988
271 1 1 -0.834 23.5982 4.10943 55.0973
272 1 1 -0.834 12.1534 8.69525 61.6548
273 1 1 -0.834 3.02726 4.06025 79.3049
274 1 1 -0.834 22.9834 11.0267 17.4734
275 1 1 -0.834 6.54595 21.662 42.3687
276 1 1 -0.834 14.1562 15.0561 69.0757
277 1 1 -0.834 0.0922375 22.7165 56.6596
278 1 1 -0.834 18.3647 13.3111 7.46975
279 1 1 -0.834 3.51907 21.7709 42.156
280 1 1 -0.834 2.07937 11.8634 84.2601
281 1 1 -0.834 20.1295 9.41416 13.3568
282 1 1 -0.834 7.55116 12.1058 65.5119
283 1 1 -0.834 10.8029 1.62625 81.2537
284 1 1 -0.834 10.184 21.624 10.9424
285 1 1 -0.834 15.0491 12.9212 11.8012
286 1 1 -0.834 0.43304 8.68473 48.5621
287 1 1 -0.834 13.3902 16.3052 8.50788
288 1 1 -0.834 24.2327 10.4286 39.0846
289 1 1 -0.834 21.9596 23.6351 31.0846
290 1 1 -0.834 4.73951 20.707 71.4479
291 1 1 -0.834 8.63485 19.4179 61.2828
292 1 1 -0.834 16.597 11.4569 56.5348
293 1 1 -0.834 14.7059 0.660787 51.1469
294 1 1 -0.834 1.86802 15.197 68.9493
295 1 1 -0.834 23.6224 12.8159 52.1344
296 1 1 -0.834 2.05466 15.8078 18.2364
297 1 1 -0.834 18.4091 3.75885 72.2819
298 1 1 -0.834 21.8392 21.3133 26.136
299 1 1 -0.834 22.1601 20.6974 3.15609
300 1 1 -0.834 18.2703 15.9238 76.7478
301 1 1 -0.834 19.8819 17.1266 6.13415
302 1 1 -0.834 17.7412 14.8805 35.429
303 1 1 -0.834 8.97355 14.2349 3.34375
304 1 1 -0.834 6.45892 23.3231 78.2497
305 1 1 -0.834 9.51107 12.6462 72.254
306 1 1 -0.834 23.0212 7.34535 64.4721
307 1 1 -0.834 11.1755 19.0593 18.0585
308 1 1 -0.834 14.8721 21.6833 68.4905
309 1 1 -0.834 12.9117 11.165 32.064
310 1 1 -0.834 0.49864 8.25184 45.7217
311 1 1 -0.834 13.4643 20.9262 66.0949
312 1 1 -0.834 22.4839 21.0242 52.64
313 1 1 -0.834 2.60856 16.7172 25.6597
314 1 1 -0.834 3.24532 12.4881 53.5809
315 1 1 -0.834 10.5216 3.53221 21.3974
316 1 1 -0.834 1.99475 18.4639 1.23628
317 1 1 -0.834 23.3618 16.2078 78.416
318 1 1 -0.834 6.19418 9.44664 47.6104
319 1 1 -0.834 1.78291 0.238114 11.0151
320 1 1 -0.834 0.0670169 3.34743 80.8306
321 1 1 -0.834 15.894 19.0729 46.6831
322 1 1 -0.834 23.1203 19.9033 79.4163
323 1 1 -0.834 0.366486 5.35698 73.2053
324 1 1 -0.834 1.21415 8.59173 75.0156
325 1 1 -0.834 3.76245 22.7285 46.3571
326 1 1 -0.834 16.4552 9.56644 53.8008
327 1 1 -0.834 9.24822 23.3023 78.4241
328 1 1 -0.834 8.31611 9.51691 23.0169
329 1 1 -0.834 19.9868 10.1643 67.2608
330 1 1 -0.834 0.56549 19.3471 53.8513
331 1 1 -0.834 8.56262 12.9585 59.4434
332 1 1 -0.834 8.92031 7.77884 58.964
333 1 1 -0.834 16.2403 6.51404 54.936
334 1 1 -0.834 15.687 13.2838 70.7512
335 1 1 -0.834 0.00643781 16.9606 85.0464
336 1 1 -0.834 6.99789 6.16226 68.2132
337 1 1 -0.834 6.53911 16.5373 46.046
338 1 1 -0.834 0.31426 12.3089 57.8352
339 1 1 -0.834 18.5053 4.04497 63.9256
340 1 1 -0.834 0.160548 4.4142 48.5648
341 1 1 -0.834 22.8509 8.55993 60.1807
342 1 1 -0.834 1.01064 19.1666 25.1414
343 1 1 -0.834 20.3225 17.9565 63.5774
344 1 1 -0.834 6.00433 19.8689 56.3613
345 1 1 -0.834 20.3181 0.507237 56.3509
346 1 1 -0.834 20.1607 17.5271 43.6733
347 1 1 -0.834 11.6132 18.0243 58.9326
348 1 1 -0.834 19.5237 5.49621 66.1829
349 1 1 -0.834 23.0923 12.4661 14.0419
350 1 1 -0.834 18.1686 6.41632 14.9305
351 1 1 -0.834 10.9714 17.253 79.6051
352 1 1 -0.834 16.276 0.527774 47.7561
353 1 1 -0.834 8.04106 11.3116 76.8858
354 1 1 -0.834 16.1968 5.31515 67.3489
355 1 1 -0.834 9.73928 1.19756 55.6041
356 1 1 -0.834 18.7427 24.1035 61.6821
357 1 1 -0.834 15.891 10.964 9.55268
358 1 1 -0.834 23.4102 23.7697 70.0508
359 1 1 -0.834 21.3333 3.69358 62.3022
360 1 1 -0.834 12.5979 15.9711 81.2416
361 1 1 -0.834 2.6241 8.5988 41.7385
362 1 1 -0.834 8.54715 18.332 78.2125
363 1 1 -0.834 0.975344 7.1329 14.7733
364 1 1 -0.834 4.83063 18.7177 47.8784
365 1 1 -0.834 22.8499 6.91664 12.0326
366 1 1 -0.834 0.689914 15.1155 71.895
367 1 1 -0.834 6.08453 22.8653 61.5778
368 1 1 -0.834 17.8379 4.50503 44.864
369 1 1 -0.834 17.9067 22.7823 43.3127
370 1 1 -0.834 8.75263 11.5801 43.1233
371 1 1 -0.834 3.99158 0.00692467 50.2611
372 1 1 -0.834 3.18675 5.02903 70.3847
373 1 1 -0.834 9.96444 21.46 41.9296
374 1 1 -0.834 13.283 19.3294 74.1988
375 1 1 -0.834 10.3258 17.2209 51.7942
376 1 1 -0.834 12.6619 12.015 55.1535
377 1 1 -0.834 0.244433 8.42773 17.0432
378 1 1 -0.834 17.5561 11.1353 65.8663
379 1 1 -0.834 0.536018 21.3982 65.1475
380 1 1 -0.834 17.4244 18.4956 32.5823
381 1 1 -0.834 13.005 13.3138 4.74149
382 1 1 -0.834 23.6217 15.8709 64.1517
383 1 1 -0.834 4.69709 15.7016 24.1759
384 1 1 -0.834 9.27273 20.8197 15.9838
385 1 1 -0.834 17.4753 15.8556 7.17354
386 1 1 -0.834 24.2877 13.6543 41.8004
387 1 1 -0.834 17.2345 17.5761 4.93185
388 1 1 -0.834 16.8843 0.91608 43.4521
389 1 1 -0.834 2.09852 10.9248 20.963
390 1 1 -0.834 18.1867 21.8637 63.9632
391 1 1 -0.834 1.38938 17.5449 58.8395
392 1 1 -0.834 21.3205 13.7373 47.0967
393 1 1 -0.834 12.4524 24.4244 52.4747
394 1 1 -0.834 8.19192 21.1534 55.0712
395 1 1 -0.834 10.3397 9.37556 48.9086
396 1 1 -0.834 12.0414 1.69635 69.9439
397 1 1 -0.834 3.73201 13.1723 25.2986
398 1 1 -0.834 12.9538 13.4549 33.4347
399 1 1 -0.834 18.1145 3.34761 52.6195
400 1 1 -0.834 13.1151 24.1344 55.5654
401 1 1 -0.834 16.5542 21.6225 2.17102
402 1 1 -0.834 5.96679 14.2631 68.9797
403 1 1 -0.834 18.0322 22.6771 46.0172
404 1 1 -0.834 2.46246 2.54939 13.747
405 1 1 -0.834 1.10482 0.99232 70.0016
406 1 1 -0.834 15.1702 11.8422 60.0624
407 1 1 -0.834 19.2769 17.8896 47.0522
408 1 1 -0.834 19.8189 22.3477 52.1367
409 1 1 -0.834 16.0799 9.43645 42.3653
410 1 1 -0.834 7.53649 10.694 2.45168
411 1 1 -0.834 18.9966 11.1071 16.0292
412 1 1 -0.834 16.1833 16.3827 31.3263
413 1 1 -0.834 14.0572 16.3263 66.8607
414 1 1 -0.834 4.48476 12.7641 78.723
415 1 1 -0.834 18.0134 9.27625 17.7006
416 1 1 -0.834 5.37892 11.1114 68.7324
417 1 1 -0.834 24.0173 11.3417 45.5566
418 1 1 -0.834 6.62353 16.1703 65.3825
419 1 1 -0.834 10.5403 22.9651 82.138
420 1 1 -0.834 6.97649 1.33536 10.3272
421 1 1 -0.834 19.0009 23.6203 79.5517
422 1 1 -0.834 9.21086 19.3264 50.3148
423 1 1 -0.834 0.0983245 7.69063 62.2169
424 1 1 -0.834 0.206815 19.6923 47.9775
425 1 1 -0.834 2.50359 21.6291 48.4752
426 1 1 -0.834 19.3356 20.9331 61.1045
427 1 1 -0.834 19.7656 7.88032 50.63
428 1 1 -0.834 13.7091 13.3188 72.634
429 1 1 -0.834 8.92989 20.8433 44.6165
430 1 1 -0.834 7.30434 18.9209 42.1986
431 1 1 -0.834 7.98572 14.4629 79.1045
432 1 1 -0.834 9.94953 9.93557 69.0084
433 1 1 -0.834 7.58148 14.3264 43.6562
434 1 1 -0.834 2.14837 3.94688 29.5315
435 1 1 -0.834 8.71089 9.54847 57.0343
436 1 1 -0.834 3.63071 7.91215 76.0961
437 1 1 -0.834 8.37102 6.13277 27.8597
438 1 1 -0.834 2.23756 12.9133 22.7266
439 1 1 -0.834 7.65758 19.7427 14.0903
440 1 1 -0.834 21.0745 15.0802 50.134
441 1 1 -0.834 17.5279 3.49536 42.2912
442 1 1 -0.834 17.0482 14.088 78.603
443 1 1 -0.834 5.56122 8.08547 6.60204
444 1 1 -0.834 9.89149 9.88908 78.8929
445 1 1 -0.834 11.1259 16.6537 12.5991
446 1 1 -0.834 6.11096 12.6267 84.297
447 1 1 -0.834 21.191 12.9751 60.9209
448 1 1 -0.834 19.2163 21.1861 6.47435
449 1 1 -0.834 6.50147 11.4382 71.1668
450 1 1 -0.834 9.0841 18.0301 37.1143
451 1 1 -0.834 1.55436 19.6254 79.6934
452 1 1 -0.834 20.5975 5.74128 49.1157
453 1 1 -0.834 19.0258 19.4902 72.2563
454 1 1 -0.834 20.0955 5.62095 42.2064
455 1 1 -0.834 1.65167 18.7106 50.9082
456 1 1 -0.834 24.0424 20.742 0.555183
457 1 1 -0.834 2.85302 17.2967 72.9704
458 1 1 -0.834 23.109 24.1204 72.881
459 1 1 -0.834 5.0485 10.0624 50.4736
460 1 1 -0.834 2.08681 6.63903 33.0709
461 1 1 -0.834 18.5657 0.321703 84.7211
462 1 1 -0.834 7.30382 4.62231 60.6204
463 1 1 -0.834 2.99118 1.34108 53.3619
464 1 1 -0.834 13.4068 10.3528 74.8194
465 1 1 -0.834 14.6152 13.3151 57.4654
466 1 1 -0.834 15.6334 14.4899 4.76709
467 1 1 -0.834 21.9972 12.0437 67.7167
468 1 1 -0.834 4.19238 21.3318 67.7762
469 1 1 -0.834 0.00742609 19.2549 22.5469
470 1 1 -0.834 8.10959 0.584349 80.4644
471 1 1 -0.834 3.71079 21.8811 55.5464
472 1 1 -0.834 15.1003 2.0301 25.8842
473 1 1 -0.834 2.06928 21.5056 71.0871
474 1 1 -0.834 20.4659 17.4822 79.2876
475 1 1 -0.834 7.20845 9.29654 4.78739
476 1 1 -0.834 4.80654 13.7687 43.0964
477 1 1 -0.834 11.0553 7.9242 52.8382
478 1 1 -0.834 18.8287 11.8426 80.8509
479 1 1 -0.834 9.16143 21.4995 66.1074
480 1 1 -0.834 11.5731 8.43448 42.39
481 1 1 -0.834 1.76929 15.3785 53.6359
482 1 1 -0.834 3.862 7.22786 48.1932
483 1 1 -0.834 17.6941 12.3984 13.9339
484 1 1 -0.834 8.37259 17.5636 44.3797
485 1 1 -0.834 2.23729 7.28421 78.453
486 1 1 -0.834 22.4074 9.35411 54.7885
487 1 1 -0.834 12.0679 19.1897 49.3897
488 1 1 -0.834 9.10974 21.9474 37.252
489 1 1 -0.834 23.5356 24.3965 53.2633
490 1 1 -0.834 0.957752 14.0076 44.3695
491 1 1 -0.834 22.6174 4.57725 65.0346
492 1 1 -0.834 1.09346 0.579699 51.4375
493 1 1 -0.834 22.1317 20.8723 32.024
494 1 1 -0.834 10.5458 22.3448 13.6807
495 1 1 -0.834 11.4551 21.8748 57.0509
496 1 1 -0.834 14.7769 12.4417 63.5595
497 1 1 -0.834 4.55141 23.2329 37.4112
498 1 1 -0.834 13.6988 21.3772 53.04
499 1 1 -0.834 21.4824 14.8765 58.5913
500 1 1 -0.834 20.5267 19.9427 45.207
501 1 1 -0.834 8.29343 23.7332 44.8216
502 1 1 -0.834 17.7361 19.7506 66.8499
503 1 1 -0.834 1.44886 4.5848 6.2614
504 1 1 -0.834 17.2328 23.0179 25.9516
505 1 1 -0.834 5.01311 7.47001 53.1326
506 1 1 -0.834 11.0591 15.4605 32.7026
507 1 1 -0.834 7.93771 8.01958 70.9902
508 1 1 -0.834 13.7795 22.6651 78.3084
509 1 1 -0.834 17.8915 3.87818 80.3867
510 1 1 -0.834 18.0244 14.8036 74.0212
511 1 1 -0.834 17.4395 8.29485 68.6929
512 1 1 -0.834 10.3938 21.5059 49.2783
513 1 1 -0.834 21.7001 21.6739 22.4315
514 1 1 -0.834 16.1121 9.14339 45.3267
515 1 1 -0.834 15.6816 8.10525 21.9896
516 1 1 -0.834 20.139 15.7258 34.0961
517 1 1 -0.834 21.3961 11.7776 12.1736
518 1 1 -0.834 0.932058 4.62799 68.7269
519 1 1 -0.834 3.16992 12.7234 44.988
520 1 1 -0.834 4.08397 0.284285 73.0488
521 1 1 -0.834 1.2596 15.8377 0.882714
522 1 1 -0.834 1.55118 5.94123 11.0818
523 1 1 -0.834 3.59455 17.6052 67.7291
524 1 1 -0.834 13.0141 0.0649963 63.3482
525 1 1 -0.834 1.69415 20.8591 27.7694
526 1 1 -0.834 16.7692 13.8867 64.2822
527 1 1 -0.834 23.3519 12.5944 72.919
528 1 1 -0.834 22.6293 17.7896 53.5309
529 1 1 -0.834 7.86676 17.8622 75.5216
530 1 1 -0.834 4.19058 24.249 81.01
531 1 1 -0.834 17.917 10.6881 72.0849
532 1 1 -0.834 23.3163 13.4382 82.6615
533 1 1 -0.834 4.11412 18.0522 55.1246
534 1 1 -0.834 19.9745 13.3154 40.4395
535 1 1 -0.834 16.3883 1.77099 56.881
536 1 1 -0.834 21.4615 8.70546 45.1106
537 1 1 -0.834 22.7824 14.686 53.8089
538 1 1 -0.834 8.72981 20.3518 82.2849
539 1 1 -0.834 17.3905 20.4372 26.9475
540 1 1 -0.834 24.0113 21.0365 50.3445
541 1 1 -0.834 23.7091 0.437462 57.8615
542 1 1 -0.834 0.918763 17.4815 20.6447
543 1 1 -0.834 6.76611 11.47 57.5818
544 1 1 -0.834 0.82227 23.8214 63.9097
545 1 1 -0.834 11.3683 14.6837 70.2016
546 1 1 -0.834 16.2326 14.8462 55.9547
547 1 1 -0.834 18.4284 5.20187 61.3153
548 1 1 -0.834 13.5269 8.32976 3.71973
549 1 1 -0.834 9.82535 6.79644 63.2427
550 1 1 -0.834 19.4486 11.1549 35.5588
551 1 1 -0.834 8.99075 18.8458 40.0282
552 1 1 -0.834 19.714 1.68125 60.0609
553 1 1 -0.834 8.92265 0.569244 62.1105
554 1 1 -0.834 24.1589 7.84259 57.7105
555 1 1 -0.834 19.9855 19.7277 77.2712
556 1 1 -0.834 22.0504 16.5255 27.8075
557 1 1 -0.834 23.4705 1.43335 64.3021
558 1 1 -0.834 13.8789 7.7549 43.8779
559 1 1 -0.834 20.694 9.43126 83.1075
560 1 1 -0.834 15.11 17.8805 81.1927
561 1 1 -0.834 21.0105 14.9479 42.8475
562 1 1 -0.834 23.539 4.26565 75.6398
563 1 1 -0.834 22.8448 12.2138 55.8507
564 1 1 -0.834 1.16818 22.6544 54.2048
565 1 1 -0.834 11.6946 19.921 54.2997
566 1 1 -0.834 22.4369 11.5836 50.0396
567 1 1 -0.834 10.941 11.9993 25.7282
568 1 1 -0.834 14.529 8.70403 56.2374
569 1 1 -0.834 3.16337 21.0973 61.4183
570 1 1 -0.834 14.6919 0.195268 58.3062
571 1 1 -0.834 2.65109 2.34189 71.9039
572 1 1 -0.834 9.03167 20.53 34.8617
573 1 1 -0.834 21.9169 2.56634 53.5916
574 1 1 -0.834 21.3708 10.9035 74.0213
575 1 1 -0.834 14.7459 16.5113 50.6671
576 1 1 -0.834 8.01676 11.5915 5.75485
577 1 1 -0.834 10.6203 15.28 72.8046
578 1 1 -0.834 16.2172 9.55183 59.066
579 1 1 -0.834 18.4491 9.8901 60.6243
580 1 1 -0.834 14.6736 17.0586 5.6987
581 1 1 -0.834 18.0683 20.0101 79.7137
582 1 1 -0.834 4.86504 17.4239 57.9219
583 1 1 -0.834 5.65187 8.93666 71.9547
584 1 1 -0.834 9.07271 21.6386 20.0232
585 1 1 -0.834 11.5697 6.32916 73.9896
586 1 1 -0.834 20.1558 14.996 78.3786
587 1 1 -0.834 6.63479 11.5287 79.6771
588 1 1 -0.834 5.20413 23.974 75.9565
589 1 1 -0.834 20.5508 10.5007 63.3872
590 1 1 -0.834 4.73438 5.55492 4.77485
591 1 1 -0.834 2.67191 19.8363 20.9664
592 1 1 -0.834 22.2765 21.9946 44.319
593 1 1 -0.834 12.1038 5.69404 44.6416
594 1 1 -0.834 11.5967 4.63175 80.0809
595 1 1 -0.834 5.99566 0.490446 55.6757
596 1 1 -0.834 6.49979 13.9472 56.3198
597 1 1 -0.834 0.906188 4.78475 13.4086
598 1 1 -0.834 8.60899 19.0964 69.7763
599 1 1 -0.834 0.918523 14.3576 60.2809
600 1 1 -0.834 0.516132 23.2268 46.2553
601 1 1 -0.834 23.716 17.3399 61.7897
602 1 1 -0.834 23.4058 9.44644 67.783
603 1 1 -0.834 14.9936 11.8521 34.7634
604 1 1 -0.834 19.8863 7.02417 18.4101
605 1 1 -0.834 12.6275 15.5086 58.1872
606 1 1 -0.834 5.51046 9.62988 54.9045
607 1 1 -0.834 10.9537 6.63998 30.2754
608 1 1 -0.834 3.66309 3.78771 44.8778
609 1 1 -0.834 6.85568 14.1721 48.0713
610 1 1 -0.834 0.550428 10.3173 52.8818
611 1 1 -0.834 14.1986 21.2563 56.6594
612 1 1 -0.834 19.0946 0.430059 26.3387
613 1 1 -0.834 14.9603 18.7659 52.7014
614 1 1 -0.834 7.80479 11.5772 24.8368
615 1 1 -0.834 22.2176 22.5284 54.8995
616 1 1 -0.834 20.2313 4.45698 77.286
617 1 1 -0.834 15.4104 4.25105 0.199108
618 1 1 -0.834 12.6245 23.9625 16.9322
619 1 1 -0.834 5.22958 9.48934 58.5862
620 1 1 -0.834 7.17721 3.77206 51.6104
621 1 1 -0.834 10.0255 20.9706 74.0006
622 1 1 -0.834 19.1353 12.193 59.2501
623 1 1 -0.834 19.3891 15.2314 52.5276
624 1 1 -0.834 4.26355 11.6992 86.0256
625 1 1 -0.834 7.40461 9.78009 67.5813
626 1 1 -0.834 17.8573 23.1702 23.0618
627 1 1 -0.834 11.6667 23.0086 19.5453
628 1 1 -0.834 3.05866 2.07208 32.8299
629 1 1 -0.834 3.13385 2.78963 10.9477
630 1 1 -0.834 7.73885 13.669 1.08399
631 1 1 -0.834 11.5887 1.07746 44.3078
632 1 1 -0.834 19.9258 1.07353 43.6396
633 1 1 -0.834 0.703334 4.57568 63.6561
634 1 1 -0.834 20.3139 19.8839 24.3075
635 1 1 -0.834 4.4852 7.18401 31.9326
636 1 1 -0.834 12.9588 1.21962 75.2739
637 1 1 -0.834 17.6437 12.5279 33.9349
638 1 1 -0.834 10.6973 13.6343 47.8128
639 1 1 -0.834 13.3643 6.09577 1.0913
640 1 1 -0.834 11.9405 3.98178 0.0405312
641 1 1 -0.834 0.291867 23.2082 59.9986
642 1 1 -0.834 10.0437 2.68977 78.4513
643 1 1 -0.834 6.23489 24.1748 15.7785
644 1 1 -0.834 22.6188 14.7363 85.3556
645 1 1 -0.834 10.816 7.66208 66.5089
646 1 1 -0.834 23.2658 15.4221 56.4207
647 1 1 -0.834 12.6975 22.9816 75.8713
648 1 1 -0.834 8.73237 0.752799 66.5501
649 1 1 -0.834 4.50951 10.0434 28.2502
650 1 1 -0.834 20.1801 7.51008 53.5527
651 1 1 -0.834 5.31832 17.6398 75.9076
652 1 1 -0.834 10.1022 10.2325 75.4502
653 1 1 -0.834 3.05607 18.4252 77.0907
654 1 1 -0.834 20.7309 17.5281 66.361
655 1 1 -0.834 2.08605 2.07663 4.94232
656 1 1 -0.834 12.0794 5.68484 77.5764
657 1 1 -0.834 1.72847 10.5801 69.9523
658 1 1 -0.834 1.56331 14.8297 80.141
659 1 1 -0.834 14.4469 3.61891 43.6298
660 1 1 -0.834 13.1798 20.268 79.7059
661 1 1 -0.834 13.0496 19.3027 60.754
662 1 1 -0.834 24.2889 16.0731 24.9954
663 1 1 -0.834 22.3382 22.0072 74.5139
664 1 1 -0.834 22.3905 22.9145 1.56206
665 1 1 -0.834 20.9513 23.4912 42.2464
666 1 1 -0.834 20.6047 24.3744 69.4084
667 1 1 -0.834 3.06885 15.9054 48.7538
668 1 1 -0.834 19.5106 20.2129 87.3886
669 1 1 -0.834 19.7902 13.9164 54.9821
670 1 1 -0.834 20.5869 8.2793 65.2121
671 1 1 -0.834 12.6792 8.28488 68.4974
672 1 1 -0.834 16.3274 6.0993 50.5892
673 1 1 -0.834 4.70432 20.4327 74.1522
674 1 1 -0.834 3.81936 11.6452 82.0698
675 1 1 -0.834 20.4406 0.223393 53.5281
676 1 1 -0.834 17.177 3.83722 22.1331
677 1 1 -0.834 14.156 13.7465 76.2765
678 1 1 -0.834 20.8287 22.1657 64.5885
679 1 1 -0.834 20.5411 9.03467 38.8219
680 1 1 -0.834 0.910636 17.8173 64.8184
681 1 1 -0.834 16.3638 6.36217 43.6003
682 1 1 -0.834 9.76154 10.8718 87.4194
683 1 1 -0.834 14.4079 23.6219 85.0285
684 1 1 -0.834 13.4905 20.2454 71.4466
685 1 1 -0.834 16.2476 12.9829 45.1761
686 1 1 -0.834 21.1218 21.8764 8.13495
687 1 1 -0.834 21.824 12.7475 44.2839
688 1 1 -0.834 15.4275 3.17152 78.8676
689 1 1 -0.834 23.4691 9.98483 63.2149
690 1 1 -0.834 11.5811 17.3332 47.3645
691 1 1 -0.834 6.4939 18.259 51.7125
692 1 1 -0.834 2.84014 11.142 67.5003
693 1 1 -0.834 7.53145 8.48672 78.3655
694 1 1 -0.834 8.34045 5.36024 79.2139
695 1 1 -0.834 21.6612 18.8602 75.1258
696 1 1 -0.834 2.20574 2.50606 49.1911
697 1 1 -0.834 18.4408 11.8667 51.6987
698 1 1 -0.834 9.42098 23.0445 68.698
699 1 1 -0.834 0.836029 23.3578 75.7977
700 1 1 -0.834 22.5669 0.373813 67.1202
701 1 1 -0.834 20.7964 6.7136 13.9315
702 1 1 -0.834 21.0365 0.516502 74.6894
703 1 1 -0.834 11.4836 9.46903 24.4349
704 1 1 -0.834 12.8153 15.4512 52.4203
705 1 1 -0.834 19.5601 1.6988 65.1963
706 1 1 -0.834 1.81222 10.6213 61.0447
707 1 1 -0.834 22.681 1.4533 77.3212
708 1 1 -0.834 6.30885 22.2475 49.8101
709 1 1 -0.834 12.1752 15.2286 62.8476
710 1 1 -0.834 6.98967 0.579612 69.8076
711 1 1 -0.834 21.9191 19.9612 60.815
712 1 1 -0.834 8.1453 17.8898 48.2235
713 1 1 -0.834 19.6842 17.3052 73.7318
714 1 1 -0.834 11.7325 12.4303 75.2263
715 1 1 -0.834 1.53073 17.482 46.4093
716 1 1 -0.834 0.574887 19.5293 56.9072
717 1 1 -0.834 16.8579 10.3113 75.1723
718 1 1 -0.834 13.7789 17.5962 45.4951
719 1 1 -0.834 23.5662 11.1666 60.1058
720 1 1 -0.834 12.6761 19.0014 11.5197
721 1 1 -0.834 10.236 10.3142 28.1993
722 1 1 -0.834 10.1385 16.4626 54.6917
723 1 1 -0.834 17.6505 12.3262 47.6087
724 1 1 -0.834 3.22225 20.2047 53.6431
725 1 1 -0.834 17.3515 13.6073 10.3323
726 1 1 -0.834 1.61633 1.44364 79.2656
727 1 1 -0.834 21.2781 8.74763 69.4485
728 1 1 -0.834 2.1834 20.1323 66.7229
729 1 1 -0.834 16.5268 18.4884 55.149
730 1 1 -0.834 15.2079 23.4873 22.0947
731 1 1 -0.834 9.67305 20.4065 59.0321
732 1 1 -0.834 18.3592 4.33109 69.0146
733 1 1 -0.834 9.96446 23.7757 39.105
734 1 1 -0.834 14.8695 17.8037 57.3646
735 1 1 -0.834 2.97076 22.4655 77.6275
736 1 1 -0.834 5.74553 18.6653 60.5306
737 1 1 -0.834 17.3471 15.7212 47.1225
738 1 1 -0.834 11.7757 0.72664 67.0923
739 1 1 -0.834 23.5079 5.2015 38.053
740 1 1 -0.834 22.9142 16.7341 0.0571194
741 1 1 -0.834 21.6936 13.4311 79.9087
742 1 1 -0.834 4.81344 3.90025 55.2807
743 1 1 -0.834 5.91229 20.9933 59.2973
744 1 1 -0.834 5.03089 19.0924 40.6305
745 1 1 -0.834 14.6614 0.895325 65.2338
746 1 1 -0.834 17.6864 20.4735 56.8851
747 1 1 -0.834 6.40878 23.8291 72.0914
748 1 1 -0.834 3.77012 0.846304 35.3824
749 1 1 -0.834 4.37963 5.0322 63.5829
750 1 1 -0.834 18.1622 20.3832 54.132
751 1 1 -0.834 2.63606 13.9229 87.6667
752 1 1 -0.834 4.14749 2.02115 29.3771
753 1 1 -0.834 22.6542 12.6732 39.5939
754 1 1 -0.834 1.47741 13.1656 64.1961
755 1 1 -0.834 23.7757 1.65018 5.57627
756 1 1 -0.834 18.0182 18.4128 69.3909
757 1 1 -0.834 5.80768 14.4943 86.1954
758 1 1 -0.834 16.0713 6.74952 59.326
759 1 1 -0.834 23.523 12.4062 78.316
760 1 1 -0.834 0.345831 6.69602 50.4673
761 1 1 -0.834 20.3971 13.9138 66.4443
762 1 1 -0.834 24.3894 21.7053 62.282
763 1 1 -0.834 22.3446 10.2859 76.7301
764 1 1 -0.834 4.18864 18.6845 65.2672
765 1 1 -0.834 5.33614 2.04323 12.9249
766 1 1 -0.834 14.4566 24.1947 71.3595
767 1 1 -0.834 19.817 4.43296 19.6726