ITEM: TIMESTEP
2500000
ITEM: NUMBER OF ATOMS
4761
ITEM: BOX BOUNDS pp pp pp
0.0000000000000000e+00 2.4433001000000001e+01
0.0000000000000000e+00 2.4433001000000001e+01
0.0000000000000000e+00 8.6882897779454566e+01
ITEM: ATOMS id mol type q x y z 
1 1 1 -0.834 2.99626 16.7421 78.0861 
2 1 1 -0.834 19.8018 0.765878 51.1379 
3 1 1 -0.834 17.1266 4.20501 61.05 
4 1 1 -0.834 8.73624 2.57408 42.0394 
5 1 1 -0.834 20.5301 9.87073 53.2824 
6 1 1 -0.834 12.6612 15.5331 75.19 
7 1 1 -0.834 4.84277 21.3531 68.6046 
8 1 1 -0.834 6.31608 3.5177 71.5258 
9 1 1 -0.834 10.146 5.79551 4.58609 
10 1 1 -0.834 2.56438 5.56321 45.3763 
11 1 1 -0.834 4.26999 17.0733 63.4737 
12 1 1 -0.834 16.8329 12.1469 13.4708 
13 1 1 -0.834 7.04938 10.7704 4.90833 
14 1 1 -0.834 0.681729 16.9683 1.22289 
15 1 1 -0.834 20.8234 12.4961 17.0929 
16 1 1 -0.834 3.49184 3.28865 79.3866 
17 1 1 -0.834 20.0384 15.3141 60.9583 
18 1 1 -0.834 9.13003 20.9831 58.3702 
19 1 1 -0.834 20.7158 20.8029 3.739 
20 1 1 -0.834 21.1328 0.682383 46.1954 
21 1 1 -0.834 7.57638 5.06804 5.70915 
22 1 1 -0.834 12.6073 6.66488 1.2051 
23 1 1 -0.834 13.5626 12.0986 56.979 
24 1 1 -0.834 0.472851 6.49252 38.1979 
25 1 1 -0.834 11.3896 14.3157 54.796 
26 1 1 -0.834 1.12937 6.74367 35.3906 
27 1 1 -0.834 14.0061 8.34429 2.99179 
28 1 1 -0.834 20.9035 11.442 75.1336 
29 1 1 -0.834 0.0171993 17.0186 80.647 
30 1 1 -0.834 0.406133 19.9458 70.1353 
31 1 1 -0.834 1.25769 5.53447 49.1136 
32 1 1 -0.834 22.5082 19.0681 53.8393 
33 1 1 -0.834 17.4946 9.29251 47.8348 
34 1 1 -0.834 5.54157 15.5986 44.5608 
35 1 1 -0.834 20.0893 22.8607 78.5815 
36 1 1 -0.834 10.6185 16.9064 37.7727 
37 1 1 -0.834 9.37628 7.00247 63.5341 
38 1 1 -0.834 3.49312 8.3173 57.0126 
39 1 1 -0.834 22.0807 14.8755 51.3057 
40 1 1 -0.834 10.0853 2.16284 76.0678 
41 1 1 -0.834 4.38337 19.9188 44.6138 
42 1 1 -0.834 16.4209 1.05419 65.336 
43 1 1 -0.834 22.0448 9.07233 15.272 
44 1 1 -0.834 22.5809 18.0497 1.36891 
45 1 1 -0.834 15.0897 12.566 72.7878 
46 1 1 -0.834 19.7234 10.3261 56.6864 
47 1 1 -0.834 17.1818 10.7952 58.2402 
48 1 1 -0.834 15.6601 2.71626 25.9939 
49 1 1 -0.834 2.51843 22.5347 33.9282 
50 1 1 -0.834 23.5523 7.78994 63.8353 
51 1 1 -0.834 9.76137 11.0719 71.9846 
52 1 1 -0.834 2.05238 3.71596 47.3678 
53 1 1 -0.834 20.5376 16.8654 2.91831 
54 1 1 -0.834 9.30134 4.41738 74.2391 
55 1 1 -0.834 19.6542 23.9014 85.2043 
56 1 1 -0.834 18.736 18.8432 53.491 
57 1 1 -0.834 9.71788 10.8413 66.9863 
58 1 1 -0.834 16.5919 19.4912 6.25013 
59 1 1 -0.834 12.3564 20.1705 58.0328 
60 1 1 -0.834 13.379 14.2681 53.0497 
61 1 1 -0.834 17.4571 10.4881 71.4324 
62 1 1 -0.834 8.15148 21.4855 81.8959 
63 1 1 -0.834 1.44403 19.9651 43.7589 
64 1 1 -0.834 2.2769 7.65124 47.4216 
65 1 1 -0.834 17.9807 9.40096 13.113 
66 1 1 -0.834 16.717 1.38085 68.1719 
67 1 1 -0.834 17.4518 0.27314 18.825 
68 1 1 -0.834 16.3519 23.5336 59.1409 
69 1 1 -0.834 1.13643 7.92022 12.812 
70 1 1 -0.834 18.5235 19.6055 50.7526 
71 1 1 -0.834 8.9848 5.70221 52.4995 
72 1 1 -0.834 12.888 12.7757 66.5249 
73 1 1 -0.834 5.77369 18.5614 20.3477 
74 1 1 -0.834 8.81413 21.2955 67.3813 
75 1 1 -0.834 18.5219 18.7491 7.87883 
76 1 1 -0.834 5.68827 17.6203 83.3295 
77 1 1 -0.834 16.9589 6.81413 20.3425 
78 1 1 -0.834 20.1177 5.38803 76.1943 
79 1 1 -0.834 19.3102 7.90442 70.7425 
80 1 1 -0.834 0.614688 14.5585 42.5044 
81 1 1 -0.834 6.30434 13.1533 52.1557 
82 1 1 -0.834 9.36906 11.4122 26.0609 
83 1 1 -0.834 5.09726 2.84431 74.5465 
84 1 1 -0.834 6.39609 1.55137 51.9458 
85 1 1 -0.834 13.5779 6.56658 70.7521 
86 1 1 -0.834 10.3765 16.3265 52.7459 
87 1 1 -0.834 2.09861 6.87658 10.3246 
88 1 1 -0.834 0.0236697 9.58949 66.3881 
89 1 1 -0.834 5.36654 24.0684 8.46256 
90 1 1 -0.834 2.91676 7.55306 51.0508 
91 1 1 -0.834 4.04786 5.31495 11.3675 
92 1 1 -0.834 6.52473 24.3219 42.2067 
93 1 1 -0.834 6.25602 22.018 65.4653 
94 1 1 -0.834 20.398 5.71499 42.3577 
95 1 1 -0.834 1.1717 12.237 41.074 
96 1 1 -0.834 23.1785 17.6614 59.7989 
97 1 1 -0.834 12.6662 7.93753 75.0019 
98 1 1 -0.834 10.297 24.2035 67.8909 
99 1 1 -0.834 9.11776 19.3113 60.5851 
100 1 1 -0.834 8.19833 16.5734 56.0967 
101 1 1 -0.834 18.4684 23.5949 69.2198 
102 1 1 -0.834 22.7566 21.0825 55.6031 
103 1 1 -0.834 5.90606 18.3562 58.8184 
104 1 1 -0.834 17.8942 19.3526 71.4083 
105 1 1 -0.834 9.04847 11.5381 76.1981 
106 1 1 -0.834 3.88966 5.9303 75.0106 
107 1 1 -0.834 20.5469 10.7337 60.5634 
108 1 1 -0.834 20.345 6.62981 60.0504 
109 1 1 -0.834 12.3278 22.0308 42.1869 
110 1 1 -0.834 15.5753 0.24121 86.2808 
111 1 1 -0.834 3.69362 11.1339 60.8373 
112 1 1 -0.834 24.4267 16.4549 47.92 
113 1 1 -0.834 1.38567 2.42386 12.7507 
114 1 1 -0.834 4.87793 16.5226 85.9392 
115 1 1 -0.834 10.7525 2.8156 70.1963 
116 1 1 -0.834 5.80699 4.48482 54.4139 
117 1 1 -0.834 0.150872 0.0865864 52.9189 
118 1 1 -0.834 13.4783 7.00258 59.7585 
119 1 1 -0.834 5.96053 11.9168 68.4433 
120 1 1 -0.834 18.961 24.4001 55.8095 
121 1 1 -0.834 19.3478 3.16625 81.7226 
122 1 1 -0.834 19.0444 5.14752 69.7269 
123 1 1 -0.834 20.4744 10.3238 19.0381 
124 1 1 -0.834 7.34334 11.1795 73.8426 
125 1 1 -0.834 7.59028 12.7382 62.0029 
126 1 1 -0.834 22.6925 8.97128 43.25 
127 1 1 -0.834 3.19791 11.4479 75.7569 
128 1 1 -0.834 20.1095 1.20989 67.258 
129 1 1 -0.834 14.9687 12.6644 60.9324 
130 1 1 -0.834 6.64847 22.2482 44.6333 
131 1 1 -0.834 8.14289 17.8996 38.2744 
132 1 1 -0.834 4.37572 7.00446 29.5846 
133 1 1 -0.834 6.19584 12.7652 71.4521 
134 1 1 -0.834 13.7768 8.93695 26.3907 
135 1 1 -0.834 0.00168035 20.549 61.387 
136 1 1 -0.834 17.989 17.8424 4.49624 
137 1 1 -0.834 4.32489 4.99225 50.6666 
138 1 1 -0.834 24.302 12.6289 68.0614 
139 1 1 -0.834 14.609 2.06058 56.6439 
140 1 1 -0.834 20.3356 7.90429 55.7156 
141 1 1 -0.834 15.0741 8.35961 78.0631 
142 1 1 -0.834 21.6865 19.332 25.821 
143 1 1 -0.834 4.53222 4.14662 61.269 
144 1 1 -0.834 23.8657 5.44048 66.7176 
145 1 1 -0.834 20.6114 7.23617 52.3214 
146 1 1 -0.834 10.2036 21.2051 79.3033 
147 1 1 -0.834 22.7479 6.69754 17.2599 
148 1 1 -0.834 6.00021 17.8157 40.4485 
149 1 1 -0.834 17.9817 10.1239 77.5614 
150 1 1 -0.834 12.1845 23.0394 47.408 
151 1 1 -0.834 0.0501983 11.1916 38.6805 
152 1 1 -0.834 17.7411 12.6385 78.11 
153 1 1 -0.834 4.5406 20.393 63.9863 
154 1 1 -0.834 20.228 22.7302 74.0104 
155 1 1 -0.834 21.8089 1.69105 76.3093 
156 1 1 -0.834 6.51719 10.4897 85.8973 
157 1 1 -0.834 17.5432 17.6381 59.5467 
158 1 1 -0.834 11.1654 8.14485 71.0791 
159 1 1 -0.834 12.1603 21.499 68.8317 
160 1 1 -0.834 3.28085 0.275486 80.1458 
161 1 1 -0.834 20.1872 3.27577 58.6215 
162 1 1 -0.834 3.01892 22.7408 9.23603 
163 1 1 -0.834 13.2138 10.3783 43.5325 
164 1 1 -0.834 9.08574 9.3356 69.3193 
165 1 1 -0.834 1.17059 11.2618 16.7279 
166 1 1 -0.834 16.0315 7.99342 62.9894 
167 1 1 -0.834 14.7937 24.0236 70.9375 
168 1 1 -0.834 21.6567 18.5834 67.7108 
169 1 1 -0.834 2.61673 20.7651 50.3994 
170 1 1 -0.834 7.42961 21.0319 77.4832 
171 1 1 -0.834 12.536 0.369458 21.5139 
172 1 1 -0.834 20.6597 19.0968 60.0095 
173 1 1 -0.834 4.74054 2.71019 37.2826 
174 1 1 -0.834 0.0136392 1.48032 74.9839 
175 1 1 -0.834 19.5614 8.94508 36.0617 
176 1 1 -0.834 13.949 1.63152 66.9993 
177 1 1 -0.834 15.3213 1.19689 60.8131 
178 1 1 -0.834 9.26278 22.8042 15.3227 
179 1 1 -0.834 22.2717 15.9636 78.0978 
180 1 1 -0.834 5.86587 2.58334 45.4168 
181 1 1 -0.834 17.4625 7.98027 81.6852 
182 1 1 -0.834 16.6951 11.8249 48.1864 
183 1 1 -0.834 5.40016 7.46639 78.7479 
184 1 1 -0.834 15.3131 10.3792 8.96737 
185 1 1 -0.834 12.3726 17.2505 78.2306 
186 1 1 -0.834 16.0952 22.8221 78.7282 
187 1 1 -0.834 19.9023 0.365694 28.1364 
188 1 1 -0.834 22.3647 9.92388 50.6129 
189 1 1 -0.834 18.7549 17.0277 29.3312 
190 1 1 -0.834 24.1981 8.96631 72.1749 
191 1 1 -0.834 8.98548 19.4276 11.0128 
192 1 1 -0.834 5.00157 8.06955 4.98558 
193 1 1 -0.834 11.8245 12.0815 61.8704 
194 1 1 -0.834 13.9777 2.93614 59.135 
195 1 1 -0.834 23.1317 21.9315 51.7419 
196 1 1 -0.834 2.59102 2.06273 60.9534 
197 1 1 -0.834 18.3841 0.832472 22.9774 
198 1 1 -0.834 6.78806 10.1678 71.1114 
199 1 1 -0.834 22.3064 14.9962 69.5979 
200 1 1 -0.834 15.1575 23.9529 50.5024 
201 1 1 -0.834 8.43829 24.3852 40.4455 
202 1 1 -0.834 6.06132 6.08375 65.0971 
203 1 1 -0.834 14.7284 17.9714 59.3732 
204 1 1 -0.834 2.474 23.8189 6.11262 
205 1 1 -0.834 14.139 19.5117 7.87585 
206 1 1 -0.834 8.11003 21.5167 13.095 
207 1 1 -0.834 3.96861 18.1027 18.1642 
208 1 1 -0.834 23.6642 1.77751 57.3209 
209 1 1 -0.834 24.3246 5.02341 63.5447 
210 1 1 -0.834 14.5915 4.86158 51.013 
211 1 1 -0.834 0.24284 12.4086 75.6678 
212 1 1 -0.834 0.299196 0.679104 44.5672 
213 1 1 -0.834 4.90067 15.3078 60.6277 
214 1 1 -0.834 15.1598 18.8688 35.9201 
215 1 1 -0.834 16.4198 4.28128 69.8117 
216 1 1 -0.834 17.2478 1.92993 58.0178 
217 1 1 -0.834 22.8498 5.5073 58.013 
218 1 1 -0.834 14.4672 13.5425 31.2232 
219 1 1 -0.834 4.69806 11.8611 81.2844 
220 1 1 -0.834 2.49193 2.99741 75.3691 
221 1 1 -0.834 11.8251 10.0754 51.3666 
222 1 1 -0.834 17.8329 13.4585 59.2735 
223 1 1 -0.834 2.59284 2.68247 7.53768 
224 1 1 -0.834 21.7164 5.81261 12.7643 
225 1 1 -0.834 12.5886 18.6383 54.8405 
226 1 1 -0.834 14.1047 6.19439 73.3091 
227 1 1 -0.834 4.58765 14.5315 77.0862 
228 1 1 -0.834 13.5084 3.69006 84.7671 
229 1 1 -0.834 5.26087 8.8999 73.4023 
230 1 1 -0.834 16.021 3.14194 84.4378 
231 1 1 -0.834 0.25775 0.716209 28.5328 
232 1 1 -0.834 15.2089 17.4229 71.2982 
233 1 1 -0.834 18.6657 23.8174 65.5738 
234 1 1 -0.834 13.2452 24.4058 75.9125 
235 1 1 -0.834 9.23266 4.63656 46.1907 
236 1 1 -0.834 8.76657 14.6384 49.1998 
237 1 1 -0.834 14.9269 22.5102 44.9592 
238 1 1 -0.834 6.24953 0.132334 14.9726 
239 1 1 -0.834 19.2939 2.81641 55.8246 
240 1 1 -0.834 4.48248 4.38493 30.0125 
241 1 1 -0.834 12.3374 20.362 71.4941 
242 1 1 -0.834 9.29967 22.95 43.8748 
243 1 1 -0.834 7.40898 15.3635 70.4385 
244 1 1 -0.834 18.1276 10.8271 37.5722 
245 1 1 -0.834 18.2062 20.5708 62.8723 
246 1 1 -0.834 13.0688 4.04284 61.6205 
247 1 1 -0.834 18.6642 15.5709 68.6347 
248 1 1 -0.834 13.0075 10.3796 73.8066 
249 1 1 -0.834 3.14625 13.1059 59.0719 
250 1 1 -0.834 8.19842 4.85416 56.0306 
251 1 1 -0.834 8.17599 23.3832 79.8459 
252 1 1 -0.834 1.91276 23.8147 49.6156 
253 1 1 -0.834 11.0084 12.1526 45.2225 
254 1 1 -0.834 9.31667 15.958 46.867 
255 1 1 -0.834 17.7517 12.657 54.9712 
256 1 1 -0.834 23.1705 20.6273 72.7273 
257 1 1 -0.834 19.3077 17.5766 79.4007 
258 1 1 -0.834 4.85504 14.7859 24.3139 
259 1 1 -0.834 13.2633 21.4484 77.0198 
260 1 1 -0.834 4.73927 13.3 55.3194 
261 1 1 -0.834 19.8426 3.98553 66.9281 
262 1 1 -0.834 10.7039 13.4347 47.4805 
263 1 1 -0.834 24.2309 23.2401 25.2191 
264 1 1 -0.834 22.7239 15.3885 43.4137 
265 1 1 -0.834 12.4241 7.76778 42.9669 
266 1 1 -0.834 17.4288 24.4015 52.2505 
267 1 1 -0.834 6.34323 9.0353 25.6548 
268 1 1 -0.834 5.15568 1.19403 54.8664 
269 1 1 -0.834 18.4298 7.31233 73.9466 
270 1 1 -0.834 21.4814 12.6649 67.2875 
271 1 1 -0.834 0.515996 11.8441 54.3583 
272 1 1 -0.834 17.6067 6.96137 39.6481 
273 1 1 -0.834 12.638 3.84351 55.3 
274 1 1 -0.834 4.03604 23.9802 11.3513 
275 1 1 -0.834 22.653 18.8829 5.5729 
276 1 1 -0.834 13.4247 10.7733 3.99752 
277 1 1 -0.834 7.56425 12.3646 49.8015 
278 1 1 -0.834 1.60216 7.66535 59.0655 
279 1 1 -0.834 1.21893 9.98374 60.7742 
280 1 1 -0.834 24.0464 19.6908 29.9427 
281 1 1 -0.834 22.0007 1.1777 43.7027 
282 1 1 -0.834 5.54263 19.4971 50.821 
283 1 1 -0.834 4.82742 15.5575 68.3258 
284 1 1 -0.834 18.1083 4.44498 21.0858 
285 1 1 -0.834 15.3517 3.14022 63.0358 
286 1 1 -0.834 8.16803 9.88518 54.5603 
287 1 1 -0.834 11.8135 16.2413 72.107 
288 1 1 -0.834 17.7526 1.17012 47.2501 
289 1 1 -0.834 16.4505 14.6011 29.6092 
290 1 1 -0.834 13.7996 3.04321 69.3427 
291 1 1 -0.834 24.0311 9.8622 77.7675 
292 1 1 -0.834 17.4417 3.05215 18.5378 
293 1 1 -0.834 23.8882 2.01144 31.0138 
294 1 1 -0.834 16.5544 15.6885 12.7635 
295 1 1 -0.834 5.00986 10.9403 78.1691 
296 1 1 -0.834 5.63807 6.92183 56.4554 
297 1 1 -0.834 19.7583 12.8897 37.796 
298 1 1 -0.834 19.561 16.2713 51.4696 
299 1 1 -0.834 15.8223 20.1039 46.1595 
300 1 1 -0.834 6.54334 12.572 65.1984 
301 1 1 -0.834 14.2372 10.5117 50.3224 
302 1 1 -0.834 13.518 19.853 60.9207 
303 1 1 -0.834 1.36169 10.5893 73.8165 
304 1 1 -0.834 2.94663 2.19731 49.3853 
305 1 1 -0.834 5.20954 6.78469 53.1994 
306 1 1 -0.834 21.7242 9.65423 34.4015 
307 1 1 -0.834 11.5584 9.7235 59.1835 
308 1 1 -0.834 3.47156 23.3385 65.4696 
309 1 1 -0.834 19.93 20.1825 77.4783 
310 1 1 -0.834 10.7773 12.7143 50.4362 
311 1 1 -0.834 15.2979 3.50949 16.9403 
312 1 1 -0.834 11.1624 19.6234 66.9527 
313 1 1 -0.834 22.0872 18.5785 77.8733 
314 1 1 -0.834 20.7515 21.9307 53.2222 
315 1 1 -0.834 12.3481 13.2813 73.6025 
316 1 1 -0.834 22.8818 19.9442 75.5589 
317 1 1 -0.834 7.37783 19.7637 62.8667 
318 1 1 -0.834 22.2186 21.3462 59.9751 
319 1 1 -0.834 1.49628 24.1533 69.7747 
320 1 1 -0.834 9.35478 17.8928 58.118 
321 1 1 -0.834 0.152812 15.3615 65.2747 
322 1 1 -0.834 20.267 16.6706 43.3552 
323 1 1 -0.834 8.94364 21.8453 72.5065 
324 1 1 -0.834 7.28029 4.75656 50.3233 
325 1 1 -0.834 7.85485 23.0736 50.8023 
326 1 1 -0.834 2.34812 12.9896 80.692 
327 1 1 -0.834 11.95 18.9798 16.5584 
328 1 1 -0.834 13.6606 7.21396 52.1977 
329 1 1 -0.834 9.8188 19.1239 18.7128 
330 1 1 -0.834 19.5456 21.1088 69.3108 
331 1 1 -0.834 15.0651 2.6308 1.01459 
332 1 1 -0.834 9.25687 15.1142 63.285 
333 1 1 -0.834 1.91015 0.467614 67.055 
334 1 1 -0.834 14.9348 7.44647 48.617 
335 1 1 -0.834 9.69668 1.2873 72.5499 
336 1 1 -0.834 24.3239 3.84854 37.4299 
337 1 1 -0.834 5.46458 7.67531 67.7483 
338 1 1 -0.834 3.44491 13.3793 65.3852 
339 1 1 -0.834 20.521 23.8722 30.578 
340 1 1 -0.834 12.1156 24.144 69.9397 
341 1 1 -0.834 15.8463 1.81359 41.4181 
342 1 1 -0.834 8.9134 5.8447 25.1687 
343 1 1 -0.834 15.5112 16.7808 8.97662 
344 1 1 -0.834 22.3812 6.06811 71.3094 
345 1 1 -0.834 10.7772 12.2963 58.1602 
346 1 1 -0.834 9.92375 15.6524 60.5103 
347 1 1 -0.834 23.6971 6.58908 46.6744 
348 1 1 -0.834 0.455521 17.43 44.7863 
349 1 1 -0.834 4.39212 24.0004 45.1758 
350 1 1 -0.834 13.6593 3.53019 65.1019 
351 1 1 -0.834 10.7513 4.69865 65.1962 
352 1 1 -0.834 3.30437 3.17324 4.53956 
353 1 1 -0.834 22.3287 12.7221 58.9052 
354 1 1 -0.834 10.7576 15.7137 8.95538 
355 1 1 -0.834 16.7621 22.59 63.8372 
356 1 1 -0.834 4.09639 5.81785 63.3735 
357 1 1 -0.834 21.7389 11.4934 39.2518 
358 1 1 -0.834 20.0125 19.5806 44.8466 
359 1 1 -0.834 17.2169 21.0144 75.5602 
360 1 1 -0.834 20.3293 16.2607 46.5437 
361 1 1 -0.834 17.0235 12.076 10.3988 
362 1 1 -0.834 6.93849 8.00054 29.0002 
363 1 1 -0.834 16.9143 19.4349 29.0334 
364 1 1 -0.834 10.7804 12.3982 28.1689 
365 1 1 -0.834 4.84281 24.3378 70.4383 
366 1 1 -0.834 0.378971 14.9586 50.1076 
367 1 1 -0.834 17.6189 23.5177 26.0625 
368 1 1 -0.834 0.664909 18.293 20.9767 
369 1 1 -0.834 22.6675 4.80364 75.2389 
370 1 1 -0.834 17.0594 19.2437 31.7803 
371 1 1 -0.834 14.9618 1.93766 49.0747 
372 1 1 -0.834 14.3419 8.66421 54.6691 
373 1 1 -0.834 19.7433 2.91137 84.4099 
374 1 1 -0.834 1.55056 7.29747 54.0125 
375 1 1 -0.834 15.6989 22.9817 20.9215 
376 1 1 -0.834 13.5593 4.41291 25.5569 
377 1 1 -0.834 16.0035 16.2719 63.6049 
378 1 1 -0.834 18.8229 10.9875 42.444 
379 1 1 -0.834 1.48071 18.8515 54.4882 
380 1 1 -0.834 22.8361 1.82055 70.4246 
381 1 1 -0.834 19.0552 6.95481 64.9521 
382 1 1 -0.834 15.8193 20.1143 57.5164 
383 1 1 -0.834 7.75628 9.21691 31.3985 
384 1 1 -0.834 21.0121 16.4373 27.2334 
385 1 1 -0.834 2.76644 8.71802 41.8879 
386 1 1 -0.834 6.2533 8.13668 60.3498 
387 1 1 -0.834 16.2008 13.8799 6.24373 
388 1 1 -0.834 23.0941 10.9378 47.3038 
389 1 1 -0.834 12.9976 3.6436 79.0266 
390 1 1 -0.834 17.7491 9.87022 40.0512 
391 1 1 -0.834 1.45139 7.50472 78.6403 
392 1 1 -0.834 14.9165 4.78813 67.561 
393 1 1 -0.834 9.78402 18.8883 52.6847 
394 1 1 -0.834 14.9518 21.1418 42.2491 
395 1 1 -0.834 18.8582 13.9449 13.0589 
396 1 1 -0.834 12.0868 14.412 60.105 
397 1 1 -0.834 19.814 10.3729 72.7859 
398 1 1 -0.834 20.8526 4.91636 79.0137 
399 1 1 -0.834 13.872 18.9927 11.6406 
400 1 1 -0.834 24.2088 6.41789 60.8025 
401 1 1 -0.834 13.907 15.3483 47.282 
402 1 1 -0.834 11.7214 14.2818 30.5276 
403 1 1 -0.834 11.5883 1.98599 45.6554 
404 1 1 -0.834 21.2881 9.27374 63.0433 
405 1 1 -0.834 5.71801 8.73983 76.5061 
406 1 1 -0.834 24.4031 23.1272 3.1781 
407 1 1 -0.834 17.7611 7.63289 42.4273 
408 1 1 -0.834 22.2258 21.2539 44.2962 
409 1 1 -0.834 5.40712 2.20788 69.0067 
410 1 1 -0.834 20.8411 8.91265 82.4371 
411 1 1 -0.834 18.4663 6.73962 62.3631 
412 1 1 -0.834 19.5521 6.61396 37.8552 
413 1 1 -0.834 23.6175 19.0459 48.8121 
414 1 1 -0.834 3.32602 18.6946 84.2615 
415 1 1 -0.834 20.8945 0.071392 0.875124 
416 1 1 -0.834 7.44278 18.7173 78.9632 
417 1 1 -0.834 22.0765 24.1692 54.2318 
418 1 1 -0.834 20.068 20.5972 6.38529 
419 1 1 -0.834 3.80046 5.5473 77.8511 
420 1 1 -0.834 6.84623 5.98727 75.0006 
421 1 1 -0.834 15.037 20.9307 71.5569 
422 1 1 -0.834 11.8287 8.08208 86.0492 
423 1 1 -0.834 14.0948 10.1613 47.5186 
424 1 1 -0.834 1.05772 20.1135 76.2305 
425 1 1 -0.834 16.2612 1.73792 21.1497 
426 1 1 -0.834 3.15398 10.928 56.0325 
427 1 1 -0.834 13.7283 12.1406 45.6058 
428 1 1 -0.834 10.139 6.86665 28.1976 
429 1 1 -0.834 6.48368 2.85413 32.507 
430 1 1 -0.834 9.79686 10.432 61.3741 
431 1 1 -0.834 21.7685 17.1789 62.1857 
432 1 1 -0.834 10.5457 2.2482 61.5324 
433 1 1 -0.834 11.4445 5.5007 69.0856 
434 1 1 -0.834 21.5972 9.14606 38.1822 
435 1 1 -0.834 1.53194 15.6099 68.006 
436 1 1 -0.834 12.0557 4.6374 46.5087 
437 1 1 -0.834 8.06942 2.90675 48.0587 
438 1 1 -0.834 4.13346 19.5758 78.723 
439 1 1 -0.834 13.7838 5.63268 44.2593 
440 1 1 -0.834 7.55025 7.60801 72.2102 
441 1 1 -0.834 14.7974 11.4257 6.53049 
442 1 1 -0.834 23.4159 3.21619 73.14 
443 1 1 -0.834 8.44867 22.2437 75.0339 
444 1 1 -0.834 23.9276 23.9758 71.5565 
445 1 1 -0.834 14.5038 10.3336 59.3746 
446 1 1 -0.834 4.15632 20.1725 53.3751 
447 1 1 -0.834 11.1275 7.66121 45.7622 
448 1 1 -0.834 20.0849 3.46043 71.4326 
449 1 1 -0.834 12.3674 14.7407 11.0636 
450 1 1 -0.834 6.02331 22.7942 17.3757 
451 1 1 -0.834 13.7904 18.2258 45.1813 
452 1 1 -0.834 16.7044 4.3248 56.6741 
453 1 1 -0.834 12.0599 6.89659 62.2371 
454 1 1 -0.834 13.8728 23.4145 18.7263 
455 1 1 -0.834 9.73754 7.33143 30.8993 
456 1 1 -0.834 22.9612 22.0936 78.4185 
457 1 1 -0.834 10.4359 15.5931 32.9727 
458 1 1 -0.834 14.6822 0.255751 63.3534 
459 1 1 -0.834 1.52019 13.1785 86.0561 
460 1 1 -0.834 4.26125 17.4117 53.2605 
461 1 1 -0.834 21.9236 9.47985 67.9276 
462 1 1 -0.834 2.80618 15.8325 40.9995 
463 1 1 -0.834 13.9318 13.5835 78.4184 
464 1 1 -0.834 5.83154 2.51533 49.4687 
465 1 1 -0.834 12.2519 14.2174 34.5051 
466 1 1 -0.834 23.6941 20.2045 65.76 
467 1 1 -0.834 23.5669 17.8037 64.3708 
468 1 1 -0.834 21.4467 12.5067 72.0646 
469 1 1 -0.834 7.01664 8.12393 62.9328 
470 1 1 -0.834 23.2265 6.32936 49.9144 
471 1 1 -0.834 19.4643 2.83132 48.5862 
472 1 1 -0.834 5.46477 0.770508 30.8842 
473 1 1 -0.834 13.9531 19.2264 69.0085 
474 1 1 -0.834 17.9795 6.93761 51.9345 
475 1 1 -0.834 20.0675 20.213 47.4348 
476 1 1 -0.834 15.8586 8.46921 67.1648 
477 1 1 -0.834 2.08425 11.2526 48.6679 
478 1 1 -0.834 9.65477 4.08979 27.6552 
479 1 1 -0.834 6.25511 10.8376 29.7463 
480 1 1 -0.834 5.54929 22.4736 52.4706 
481 1 1 -0.834 11.2482 9.80965 30.579 
482 1 1 -0.834 10.4535 19.7306 49.9743 
483 1 1 -0.834 21.6597 3.48929 42.0448 
484 1 1 -0.834 13.1001 24.3907 40.8881 
485 1 1 -0.834 8.58094 18.5639 41.764 
486 1 1 -0.834 17.9186 13.9548 70.7033 
487 1 1 -0.834 21.3958 24.2242 49.0215 
488 1 1 -0.834 2.73749 3.91221 58.1584 
489 1 1 -0.834 11.9884 11.9641 76.3296 
490 1 1 -0.834 21.6156 8.14175 73.2914 
491 1 1 -0.834 21.5029 14.1711 15.1699 
492 1 1 -0.834 12.5462 19.5721 35.2721 
493 1 1 -0.834 12.138 16.079 45.4272 
494 1 1 -0.834 5.05237 17.1903 22.6788 
495 1 1 -0.834 5.7795 14.5011 48.4188 
496 1 1 -0.834 4.63041 0.258227 63.3158 
497 1 1 -0.834 23.5783 20.5992 41.9421 
498 1 1 -0.834 0.58215 22.067 67.8113 
499 1 1 -0.834 20.3557 0.671024 70.7536 
500 1 1 -0.834 9.95697 6.15214 86.4039 
501 1 1 -0.834 4.79069 17.5583 42.8403 
502 1 1 -0.834 3.31404 11.3424 50.9714 
503 1 1 -0.834 1.11488 15.7825 54.9497 
504 1 1 -0.834 0.949896 10.2774 14.2839 
505 1 1 -0.834 12.0405 17.3557 58.7773 
506 1 1 -0.834 19.0405 22.7456 59.6923 
507 1 1 -0.834 20.4155 23.6988 41.8794 
508 1 1 -0.834 17.4535 17.5684 73.8944 
509 1 1 -0.834 10.7799 0.740578 18.6082 
510 1 1 -0.834 9.24852 10.6751 23.474 
511 1 1 -0.834 24.0606 5.61957 78.235 
512 1 1 -0.834 5.95361 20.4956 41.6004 
513 1 1 -0.834 11.5254 20.8982 12.6245 
514 1 1 -0.834 14.9942 11.9053 54.4228 
515 1 1 -0.834 1.40612 22.1969 29.3557 
516 1 1 -0.834 10.1148 14.7235 75.1726 
517 1 1 -0.834 7.857 15.1126 58.5685 
518 1 1 -0.834 13.1822 22.6215 56.7655 
519 1 1 -0.834 22.5483 7.92232 76.9255 
520 1 1 -0.834 17.1336 6.24783 17.5291 
521 1 1 -0.834 14.9336 22.4805 61.5698 
522 1 1 -0.834 22.6999 11.5828 44.2294 
523 1 1 -0.834 6.68541 20.4281 15.5605 
524 1 1 -0.834 8.46772 6.2882 78.3124 
525 1 1 -0.834 23.2665 0.933076 78.9738 
526 1 1 -0.834 10.8714 2.82934 84.3904 
527 1 1 -0.834 2.77827 4.95629 65.9831 
528 1 1 -0.834 19.3461 11.5455 34.7648 
529 1 1 -0.834 11.9139 16.6534 50.0581 
530 1 1 -0.834 14.3124 14.0174 58.6926 
531 1 1 -0.834 5.73088 2.30579 80.5884 
532 1 1 -0.834 12.43 19.6812 74.3123 
533 1 1 -0.834 15.2844 11.5599 67.0426 
534 1 1 -0.834 20.0454 23.1685 63.0162 
535 1 1 -0.834 17.7706 5.80548 54.4262 
536 1 1 -0.834 4.91156 14.5923 57.909 
537 1 1 -0.834 20.7899 11.1348 77.9057 
538 1 1 -0.834 10.3287 22.5574 55.9456 
539 1 1 -0.834 16.0873 8.82157 51.5206 
540 1 1 -0.834 4.90549 15.4149 18.8978 
541 1 1 -0.834 7.38235 16.7843 60.9718 
542 1 1 -0.834 3.39651 13.6977 62.579 
543 1 1 -0.834 12.4543 7.13568 22.5019 
544 1 1 -0.834 1.19737 21.4136 26.6653 
545 1 1 -0.834 18.06 4.2618 41.4413 
546 1 1 -0.834 19.6216 15.0386 8.90193 
547 1 1 -0.834 16.2906 21.4936 27.1122 
548 1 1 -0.834 24.2022 3.03998 7.13464 
549 1 1 -0.834 16.3546 0.956159 54.7905 
550 1 1 -0.834 18.418 9.65937 62.8199 
551 1 1 -0.834 2.97599 2.93613 28.3868 
552 1 1 -0.834 1.06961 9.84898 63.776 
553 1 1 -0.834 20.0134 21.6213 57.1095 
554 1 1 -0.834 22.8425 22.3701 63.2778 
555 1 1 -0.834 24.0886 4.14129 11.5055 
556 1 1 -0.834 17.8148 10.0039 53.031 
557 1 1 -0.834 3.66136 17.6306 80.9332 
558 1 1 -0.834 22.4055 16.5762 71.8703 
559 1 1 -0.834 3.0574 7.21013 72.5511 
560 1 1 -0.834 17.6881 9.54013 65.4756 
561 1 1 -0.834 8.79883 6.49763 68.8631 
562 1 1 -0.834 23.0577 14.089 45.7194 
563 1 1 -0.834 13.1419 21.8011 79.9788 
564 1 1 -0.834 5.11774 9.74308 2.42598 
565 1 1 -0.834 6.72828 13.9876 86.7972 
566 1 1 -0.834 15.5019 9.48538 42.3155 
567 1 1 -0.834 19.2401 14.4736 35.4652 
568 1 1 -0.834 17.4586 4.76521 23.8108 
569 1 1 -0.834 15.1677 3.60321 46.9208 
570 1 1 -0.834 19.9977 12.6064 69.7364 
571 1 1 -0.834 9.80806 0.432154 54.6676 
572 1 1 -0.834 7.18692 20.5987 47.1731 
573 1 1 -0.834 21.6247 16.3441 53.7302 
574 1 1 -0.834 9.56342 14.9169 43.2653 
575 1 1 -0.834 24.0102 13.1941 62.5654 
576 1 1 -0.834 9.65306 9.73774 85.66 
577 1 1 -0.834 16.0675 8.3453 72.5774 
578 1 1 -0.834 6.02327 4.79132 47.0538 
579 1 1 -0.834 17.0365 11.6463 74.4857 
580 1 1 -0.834 17.4596 18.0451 34.543 
581 1 1 -0.834 1.20187 18.1576 60.7961 
582 1 1 -0.834 6.81049 6.78945 2.8965 
583 1 1 -0.834 21.3752 13.7232 64.7112 
584 1 1 -0.834 16.9428 4.16225 81.8734 
585 1 1 -0.834 19.2535 1.08078 25.578 
586 1 1 -0.834 15.6242 4.35992 42.7014 
587 1 1 -0.834 18.0646 0.0738557 74.5456 
588 1 1 -0.834 1.67435 20.5968 3.46612 
589 1 1 -0.834 12.2525 6.00992 80.164 
590 1 1 -0.834 1.7169 15.5355 61.5031 
591 1 1 -0.834 6.90221 6.198 27.0072 
592 1 1 -0.834 3.86256 21.3731 76.372 
593 1 1 -0.834 9.05179 7.14261 66.2931 
594 1 1 -0.834 1.2733 20.7165 56.5251 
595 1 1 -0.834 4.09692 20.84 39.3712 
596 1 1 -0.834 22.9997 7.14213 55.4472 
597 1 1 -0.834 8.60866 4.43188 62.9422 
598 1 1 -0.834 20.295 19.2871 55.721 
599 1 1 -0.834 18.3594 13.8653 45.1986 
600 1 1 -0.834 11.8423 0.779527 63.9267 
601 1 1 -0.834 22.8562 13.4674 54.4664 
602 1 1 -0.834 11.1331 7.55873 57.556 
603 1 1 -0.834 19.7536 16.7745 75.3355 
604 1 1 -0.834 8.78873 20.3868 34.8493 
605 1 1 -0.834 1.62515 3.38233 54.5231 
606 1 1 -0.834 18.2445 0.0813751 80.2017 
607 1 1 -0.834 15.9568 12.4008 80.1314 
608 1 1 -0.834 10.7038 8.28989 77.8293 
609 1 1 -0.834 6.6429 14.0962 81.388 
610 1 1 -0.834 15.6832 22.9642 68.2256 
611 1 1 -0.834 22.5202 2.58512 33.5536 
612 1 1 -0.834 17.7202 15.5123 53.1411 
613 1 1 -0.834 18.0986 15.6305 6.48555 
614 1 1 -0.834 4.77044 23.8109 58.1714 
615 1 1 -0.834 22.9084 24.0648 60.5248 
616 1 1 -0.834 11.5015 4.84736 52.9501 
617 1 1 -0.834 0.239367 11.1851 19.6766 
618 1 1 -0.834 10.0437 2.07882 65.8183 
619 1 1 -0.834 2.01671 5.24293 69.7789 
620 1 1 -0.834 12.0441 13.5282 4.10962 
621 1 1 -0.834 15.5919 5.13105 75.5183 
622 1 1 -0.834 12.9223 16.8351 13.0014 
623 1 1 -0.834 10.6277 17.4329 35.1844 
624 1 1 -0.834 11.8435 9.0048 24.4852 
625 1 1 -0.834 1.35931 9.07081 39.5109 
626 1 1 -0.834 6.62325 19.5642 67.2117 
627 1 1 -0.834 8.27367 0.38536 45.5856 
628 1 1 -0.834 22.3817 4.6607 15.438 
629 1 1 -0.834 23.5368 12.8893 16.5123 
630 1 1 -0.834 18.8847 18.1703 68.913 
631 1 1 -0.834 2.69408 0.713858 30.2385 
632 1 1 -0.834 6.21305 21.5408 57.9323 
633 1 1 -0.834 5.46477 7.91234 43.468 
634 1 1 -0.834 18.058 22.6579 23.5146 
635 1 1 -0.834 4.28055 20.8332 55.9642 
636 1 1 -0.834 12.5854 15.5414 80.1338 
637 1 1 -0.834 2.34991 10.2557 78.6394 
638 1 1 -0.834 19.8643 18.3893 31.6813 
639 1 1 -0.834 1.1974 5.36583 13.8004 
640 1 1 -0.834 13.5652 15.1904 67.4956 
641 1 1 -0.834 20.4721 0.975022 73.5654 
642 1 1 -0.834 6.33577 15.6191 78.8453 
643 1 1 -0.834 10.0909 3.13311 55.4106 
644 1 1 -0.834 13.0988 13.7656 70.8243 
645 1 1 -0.834 5.10289 2.27089 9.43514 
646 1 1 -0.834 16.6996 15.4475 35.599 
647 1 1 -0.834 10.522 8.70258 49.1557 
648 1 1 -0.834 22.7158 11.4137 14.1133 
649 1 1 -0.834 12.7935 0.706807 16.3165 
650 1 1 -0.834 9.38745 12.7725 55.752 
651 1 1 -0.834 7.93271 6.93272 46.6229 
652 1 1 -0.834 13.485 18.1806 63.8847 
653 1 1 -0.834 8.09952 3.5084 69.283 
654 1 1 -0.834 18.9895 21.7831 29.4462 
655 1 1 -0.834 16.3496 21.3758 2.55675 
656 1 1 -0.834 0.907955 3.09226 66.1128 
657 1 1 -0.834 17.0275 15.0593 76.3714 
658 1 1 -0.834 9.83662 16.3539 40.7831 
659 1 1 -0.834 15.5535 17.1571 29.5311 
660 1 1 -0.834 20.0838 8.01981 78.5642 
661 1 1 -0.834 0.897842 19.5474 23.7522 
662 1 1 -0.834 5.7822 10.8504 23.002 
663 1 1 -0.834 21.3861 9.4039 10.8718 
664 1 1 -0.834 14.7007 0.0818939 47.0457 
665 1 1 -0.834 22.675 20.3794 23.1568 
666 1 1 -0.834 22.7033 12.6513 41.619 
667 1 1 -0.834 14.4157 18.1263 80.3031 
668 1 1 -0.834 15.9702 14.3072 56.3194 
669 1 1 -0.834 0.319689 18.8737 51.1533 
670 1 1 -0.834 21.1446 19.4931 71.0585 
671 1 1 -0.834 0.353391 8.06824 16.1758 
672 1 1 -0.834 10.81 0.727553 80.9905 
673 1 1 -0.834 2.37643 0.913608 55.7521 
674 1 1 -0.834 15.8921 17.4242 77.5714 
675 1 1 -0.834 7.811 0.900989 37.5345 
676 1 1 -0.834 8.0733 16.9124 43.9746 
677 1 1 -0.834 6.27841 17.708 15.6945 
678 1 1 -0.834 22.098 10.1141 80.2805 
679 1 1 -0.834 20.3282 11.1709 12.6351 
680 1 1 -0.834 4.76642 19.3882 73.1355 
681 1 1 -0.834 10.645 20.3759 37.0673 
682 1 1 -0.834 14.3367 0.848181 73.4919 
683 1 1 -0.834 16.1335 7.32445 69.8243 
684 1 1 -0.834 7.28516 13.1132 25.5628 
685 1 1 -0.834 20.7108 14.4968 40.9503 
686 1 1 -0.834 15.4776 6.76705 84.4169 
687 1 1 -0.834 1.0673 16.4446 83.0293 
688 1 1 -0.834 16.4776 12.0332 45.1288 
689 1 1 -0.834 7.16573 13.07 3.57555 
690 1 1 -0.834 11.2151 21.8804 60.3022 
691 1 1 -0.834 11.6064 20.2558 63.0006 
692 1 1 -0.834 2.45236 5.46485 80.677 
693 1 1 -0.834 13.1878 22.4426 74.0048 
694 1 1 -0.834 4.49694 13.0317 83.8217 
695 1 1 -0.834 19.3518 1.37893 43.5811 
696 1 1 -0.834 2.76259 13.2877 68.6868 
697 1 1 -0.834 0.866349 22.2779 59.2521 
698 1 1 -0.834 17.4607 15.5005 49.6323 
699 1 1 -0.834 9.24976 12.6857 69.4122 
700 1 1 -0.834 1.89449 19.4577 82.1122 
701 1 1 -0.834 19.0499 20.4008 73.7205 
702 1 1 -0.834 18.0259 5.7197 83.6763 
703 1 1 -0.834 7.52894 10.4857 45.1888 
704 1 1 -0.834 20.9177 23.1872 5.27759 
705 1 1 -0.834 10.9597 5.037 21.9343 
706 1 1 -0.834 23.362 24.1109 6.13008 
707 1 1 -0.834 7.29375 4.88739 29.2544 
708 1 1 -0.834 3.23342 8.41564 69.6762 
709 1 1 -0.834 19.4726 7.09178 12.1774 
710 1 1 -0.834 2.95637 15.6283 44.7793 
711 1 1 -0.834 1.98113 16.9709 23.981 
712 1 1 -0.834 1.27058 22.3515 78.3617 
713 1 1 -0.834 9.96554 19.4783 55.4147 
714 1 1 -0.834 2.91358 19.3197 69.0264 
715 1 1 -0.834 24.4068 13.7795 73.3403 
716 1 1 -0.834 23.8208 23.408 48.2778 
717 1 1 -0.834 2.87321 0.304963 52.1355 
718 1 1 -0.834 23.4642 23.9359 0.678819 
719 1 1 -0.834 8.7354 5.15105 71.5341 
720 1 1 -0.834 1.42936 1.03358 32.639 
721 1 1 -0.834 8.53184 0.445115 16.9156 
722 1 1 -0.834 8.33569 8.04336 44.1206 
723 1 1 -0.834 11.0477 21.0425 39.7486 
724 1 1 -0.834 15.5274 15.6434 79.4444 
725 1 1 -0.834 8.79777 19.3952 73.4415 
726 1 1 -0.834 10.2626 23.3423 12.3444 
727 1 1 -0.834 5.70897 0.573345 78.6829 
728 1 1 -0.834 10.9564 17.6856 62.087 
729 1 1 -0.834 2.29997 2.08692 37.4761 
730 1 1 -0.834 3.12207 7.77119 61.5416 
731 1 1 -0.834 3.61735 4.20459 35.004 
732 1 1 -0.834 6.60124 18.0003 64.8618 
733 1 1 -0.834 12.0011 20.6511 52.7396 
734 1 1 -0.834 5.46794 6.96495 32.2218 
735 1 1 -0.834 2.9733 11.8543 23.341 
736 1 1 -0.834 8.85047 18.275 76.2458 
737 1 1 -0.834 23.8429 1.63033 47.9941 
738 1 1 -0.834 5.25254 10.254 58.4411 
739 1 1 -0.834 14.3277 5.90491 56.0491 
740 1 1 -0.834 17.917 22.4844 43.2772 
741 1 1 -0.834 19.5109 5.64855 57.1827 
742 1 1 -0.834 22.1746 9.89896 58.4635 
743 1 1 -0.834 21.6432 22.1342 65.6717 
744 1 1 -0.834 13.5065 17.5705 31.9182 
745 1 1 -0.834 11.8635 11.3488 54.9773 
746 1 1 -0.834 0.610417 22.5558 43.5902 
747 1 1 -0.834 9.70575 22.2507 19.0464 
748 1 1 -0.834 15.8465 21.9019 48.4486 
749 1 1 -0.834 18.2024 1.54689 0.528142 
750 1 1 -0.834 7.31345 19.5866 70.1412 