 DBCSR| CPU Multiplication driver                                           XSMM (U)
 DBCSR| Multrec recursion limit                                              512 (U)
 DBCSR| Multiplication stack size                                           1000 (D)
 DBCSR| Maximum elements for images                                    UNLIMITED (U)
 DBCSR| Multiplicative factor virtual images                                   1 (U)
 DBCSR| Use multiplication densification                                       T (D)
 DBCSR| Multiplication size stacks                                             3 (U)
 DBCSR| Use memory pool for CPU allocation                                     F (U)
 DBCSR| Number of 3D layers                                               SINGLE (U)
 DBCSR| Use MPI memory allocation                                              F (U)
 DBCSR| Use RMA algorithm                                                      F (U)
 DBCSR| Use Communication thread                                               T (U)
 DBCSR| Communication thread load                                             87 (D)
 DBCSR| MPI: My process id                                                     0
 DBCSR| MPI: Number of processes                                              24
 DBCSR| OMP: Current number of threads                                         1
 DBCSR| OMP: Max number of threads                                             1
 DBCSR| Split modifier for TAS multiplication algorithm                  1.0E+00 (U)


  **** **** ******  **  PROGRAM STARTED AT               2025-01-28 14:24:18.382
 ***** ** ***  *** **   PROGRAM STARTED ON                     c0219.ten.osc.edu
 **    ****   ******    PROGRAM STARTED BY                               xiutinc
 ***** **    ** ** **   PROGRAM PROCESS ID                                271323
  **** **  *******  **  PROGRAM STARTED IN /fs/scratch/PAS2536/xiutinc/386231.ad
                                           l02_01_02_propanol

 CP2K| version string:                                       CP2K version 2023.2
 CP2K| source code revision number:                                  git:65cca6c
 CP2K| cp2kflags: omp libint fftw3 libxc parallel scalapack xsmm plumed2 mkl sir
 CP2K|            ius
 CP2K| is freely available from                            https://www.cp2k.org/
 CP2K| Program compiled at                          Mon Oct 14 13:01:09 EDT 2024
 CP2K| Program compiled on                             cardinal-rw02.ten.osc.edu
 CP2K| Program compiled for                       linux-rhel9-sapphirerapids-gcc
 CP2K| Data directory path    /apps/spack/0.21/cardinal/linux-rhel9-sapphirerapi
 CP2K| Input file name                                             intE03_aq.inp

 GLOBAL| Force Environment number                                              1
 GLOBAL| Basis set file name                                          BASIS_file
 GLOBAL| Potential file name                                     POTENTIALS_file
 GLOBAL| MM Potential file name                                     MM_POTENTIAL
 GLOBAL| Coordinate file name                                    ./intE03_aq.xyz
 GLOBAL| Method name                                                        CP2K
 GLOBAL| Project name                                                  intE03_aq
 GLOBAL| Run type                                                        GEO_OPT
 GLOBAL| FFT library                                                       FFTW3
 GLOBAL| Diagonalization library                                       ScaLAPACK
 GLOBAL| DGEMM library                                                      BLAS
 GLOBAL| Orthonormality check for eigenvectors                          DISABLED
 GLOBAL| Matrix multiplication library                                 ScaLAPACK
 GLOBAL| All-to-all communication in single precision                          F
 GLOBAL| FFTs using library dependent lengths                                  F
 GLOBAL| Grid backend                                                       AUTO
 GLOBAL| Global print level                                                  LOW
 GLOBAL| MPI I/O enabled                                                       T
 GLOBAL| Total number of message passing processes                            24
 GLOBAL| Number of threads for this process                                    1
 GLOBAL| This output is from process                                           0
 GLOBAL| Stack size for threads created by OpenMP (OMP_STACKSIZE)        default
 GLOBAL| CPU model name                            Intel(R) Xeon(R) CPU Max 9470
 GLOBAL| CPUID                                                              1003

 MEMORY| system memory details [Kb]
 MEMORY|                        rank 0           min           max       average
 MEMORY| MemTotal            662060560     662060560     662060560     662060560
 MEMORY| MemFree             632525108     632525108     632551788     632542653
 MEMORY| Buffers                 80540         80540         80540         80540
 MEMORY| Cached                1234240       1234240       1234240       1234240
 MEMORY| Slab                   915704        915704        915728        915712
 MEMORY| SReclaimable           225080        225080        225080        225080
 MEMORY| MemLikelyFree       634064968     634064968     634091648     634082513


 *******************************************************************************
 *******************************************************************************
 **                                                                           **
 **     #####                         ##              ##                      **
 **    ##   ##            ##          ##              ##                      **
 **   ##     ##                       ##            ######                    **
 **   ##     ##  ##   ##  ##   #####  ##  ##   ####   ##    #####    #####    **
 **   ##     ##  ##   ##  ##  ##      ## ##   ##      ##   ##   ##  ##   ##   **
 **   ##  ## ##  ##   ##  ##  ##      ####     ###    ##   ######   ######    **
 **    ##  ###   ##   ##  ##  ##      ## ##      ##   ##   ##       ##        **
 **     #######   #####   ##   #####  ##  ##  ####    ##    #####   ##        **
 **           ##                                                    ##        **
 **                                                                           **
 **                                                ... make the atoms dance   **
 **                                                                           **
 **            Copyright (C) by CP2K developers group (2000-2023)             **
 **                      J. Chem. Phys. 152, 194103 (2020)                    **
 **                                                                           **
 *******************************************************************************


 TOTAL NUMBERS AND MAXIMUM NUMBERS

  Total number of            - Atomic kinds:                                   5
                             - Atoms:                                        651
                             - Shell sets:                                   651
                             - Shells:                                      3154
                             - Primitive Cartesian functions:               3066
                             - Cartesian basis functions:                   8663
                             - Spherical basis functions:                   8060

  Maximum angular momentum of- Orbital basis functions:                        3
                             - Local part of the GTH pseudopotential:          2
                             - Non-local part of the GTH pseudopotential:      3


 SCF PARAMETERS         Density guess:                                   RESTART
                        --------------------------------------------------------
                        max_scf:                                             500
                        max_scf_history:                                       0
                        max_diis:                                              4
                        --------------------------------------------------------
                        eps_scf:                                        1.00E-06
                        eps_scf_history:                                0.00E+00
                        eps_diis:                                       1.00E-01
                        eps_eigval:                                     1.00E-05
                        --------------------------------------------------------
                        level_shift [a.u.]:                             0.000000
                        --------------------------------------------------------
                        Outer loop SCF in use 
                        No variables optimised in outer loop
                        eps_scf                                         1.00E-06
                        max_scf                                               50
                        No outer loop optimization
                        step_size                                       5.00E-01

 BFGS| Use rational function optimization for step estimation:                NO
 BFGS| Use model Hessian for initial guess:                                  YES
 BFGS| Restart Hessian:                                                       NO
 BFGS| Trust radius:                                                       0.472

 *******************************************************************************
 ***                     STARTING GEOMETRY OPTIMIZATION                      ***
 ***                                   BFGS                                  ***
 *******************************************************************************

 Number of electrons:                                                       3252
 Number of occupied orbitals:                                               1626
 Number of molecular orbitals:                                              1626

 Number of orbital functions:                                               8060
 Number of independent orbital functions:                                   8060

 Extrapolation method: initial_guess

 *** WARNING in qs_initial_guess.F:305 :: User requested to restart the   ***
 *** wavefunction from the file named: intE03_aq-RESTART.wfn. This file   ***
 *** does not exist. Please check the existence of the file or change     ***
 *** properly the value of the keyword WFN_RESTART_FILE_NAME. Calculation ***
 *** continues using ATOMIC GUESS.                                        ***



 SCF WAVEFUNCTION OPTIMIZATION

  ----------------------------------- OT ---------------------------------------
  Minimizer      : CG                  : conjugate gradient
  Preconditioner : FULL_ALL            : diagonalization, state selective
  Precond_solver : DEFAULT
  Line search    : 2PNT                : 2 energies, one gradient
  stepsize       :    0.15000000                  energy_gap     :    0.00100000
  eps_taylor     :   0.10000E-15                  max_taylor     :             4
  ----------------------------------- OT ---------------------------------------

  Step     Update method      Time    Convergence         Total energy    Change
  ------------------------------------------------------------------------------
     1 OT CG       0.15E+00   22.6     0.01623049     -7076.0136708066 -7.08E+03
     2 OT LS       0.66E-01    2.4                    -7006.0710891417
     3 OT CG       0.66E-01    5.6     0.07119167     -6996.1351146141  7.99E+01
     4 OT LS       0.30E-01    2.4                    -6573.0580008655
     5 OT CG       0.30E-01    5.6     0.10594149     -6758.2727734572  2.38E+02
     6 OT LS       0.16E-01    2.4                    -6887.6653341823
     7 OT CG       0.16E-01    5.6     0.04744560     -6989.9086425989 -2.32E+02
     8 OT LS       0.95E-02    2.4                    -7060.1457125190
     9 OT CG       0.95E-02    5.6     0.01559781     -7086.7905095308 -9.69E+01
    10 OT LS       0.27E-01    2.4                    -7109.1526311819
    11 OT CG       0.27E-01    5.6     0.01492427     -7123.0324638234 -3.62E+01
    12 OT LS       0.37E-01    2.4                    -7167.6816664186
    13 OT CG       0.37E-01    5.6     0.01060343     -7173.9236892726 -5.09E+01
    14 OT LS       0.23E-01    2.4                    -7185.8704049858
    15 OT CG       0.23E-01    5.6     0.01020465     -7189.4245219592 -1.55E+01
    16 OT LS       0.36E-01    2.4                    -7210.5857118602
    17 OT CG       0.36E-01    5.6     0.01094366     -7210.5725716591 -2.11E+01
    18 OT LS       0.12E-01    2.4                    -7192.7608090026
    19 OT CG       0.12E-01    5.6     0.01154228     -7217.5172881590 -6.94E+00
    20 OT LS       0.13E-01    2.5                    -7229.2333212278
    21 OT CG       0.13E-01    5.6     0.00481051     -7229.6370556290 -1.21E+01
    22 OT LS       0.51E-01    2.4                    -7233.3928856839
    23 OT CG       0.51E-01    5.6     0.00547652     -7237.4747909686 -7.84E+00
    24 OT LS       0.40E-01    2.4                    -7244.1787123228
    25 OT CG       0.40E-01    5.6     0.00444946     -7244.5403481253 -7.07E+00
    26 OT LS       0.47E-01    2.4                    -7250.5769562400
    27 OT CG       0.47E-01    5.6     0.00350834     -7250.7999704346 -6.26E+00
    28 OT LS       0.29E-01    2.4                    -7252.2389411832
    29 OT CG       0.29E-01    5.6     0.00298905     -7253.4067490462 -2.61E+00
    30 OT LS       0.87E-01    2.4                    -7256.2467178028
    31 OT CG       0.87E-01    5.6     0.00406025     -7258.2221252154 -4.82E+00
    32 OT LS       0.41E-01    2.4                    -7257.1485760672
    33 OT CG       0.41E-01    5.6     0.00327858     -7261.0960858524 -2.87E+00
    34 OT LS       0.52E-01    2.4                    -7264.1414145937
    35 OT CG       0.52E-01    5.6     0.00292344     -7264.1138800150 -3.02E+00
    36 OT LS       0.59E-01    2.4                    -7266.9152275343
    37 OT CG       0.59E-01    5.6     0.00237711     -7266.9694002385 -2.86E+00
    38 OT LS       0.72E-01    2.4                    -7269.5836826993
    39 OT CG       0.72E-01    5.6     0.00227386     -7269.7423156732 -2.77E+00
    40 OT LS       0.54E-01    2.4                    -7271.5322446778
    41 OT CG       0.54E-01    5.6     0.00221404     -7271.8355561030 -2.09E+00
    42 OT LS       0.64E-01    2.4                    -7273.7969657424
    43 OT CG       0.64E-01    5.6     0.00224776     -7273.8554821584 -2.02E+00
    44 OT LS       0.45E-01    2.4                    -7275.1292147486
    45 OT CG       0.45E-01    5.6     0.00184270     -7275.2948194167 -1.44E+00
    46 OT LS       0.87E-01    2.4                    -7276.8164843984
    47 OT CG       0.87E-01    5.6     0.00259446     -7277.1035200570 -1.81E+00
    48 OT LS       0.35E-01    2.4                    -7275.6906410276
    49 OT CG       0.35E-01    5.6     0.00236306     -7278.4301383737 -1.33E+00
    50 OT LS       0.37E-01    2.5                    -7279.8040760037
    51 OT CG       0.37E-01    5.6     0.00148178     -7279.8162452569 -1.39E+00
    52 OT LS       0.94E-01    2.4                    -7280.7361217685
    53 OT CG       0.94E-01    5.6     0.00150889     -7281.1824459475 -1.37E+00
    54 OT LS       0.77E-01    2.4                    -7282.1271510157
    55 OT CG       0.77E-01    5.6     0.00169094     -7282.1683884503 -9.86E-01
    56 OT LS       0.80E-01    2.4                    -7283.6692819715
    57 OT CG       0.80E-01    5.6     0.00156406     -7283.6750364713 -1.51E+00
    58 OT LS       0.72E-01    2.4                    -7284.8817941624
    59 OT CG       0.72E-01    5.6     0.00144716     -7284.9067502258 -1.23E+00
    60 OT LS       0.99E-01    2.4                    -7286.1144271660
    61 OT CG       0.99E-01    5.6     0.00184211     -7286.1932587988 -1.29E+00
    62 OT LS       0.62E-01    2.4                    -7287.0556859527
    63 OT CG       0.62E-01    5.6     0.00151787     -7287.4604643550 -1.27E+00
    64 OT LS       0.95E-01    2.4                    -7288.7218581006
    65 OT CG       0.95E-01    5.6     0.00141107     -7288.8781182223 -1.42E+00
    66 OT LS       0.77E-01    2.4                    -7289.8089909999
    67 OT CG       0.77E-01    5.6     0.00135667     -7289.8669449738 -9.89E-01
    68 OT LS       0.78E-01    2.5                    -7290.8040348357
    69 OT CG       0.78E-01    6.0     0.00120246     -7290.8045510716 -9.38E-01
    70 OT LS       0.88E-01    2.4                    -7291.6411744878
    71 OT CG       0.88E-01    5.6     0.00120017     -7291.6496096989 -8.45E-01
    72 OT LS       0.77E-01    2.4                    -7292.3624041142
    73 OT CG       0.77E-01    5.6     0.00118129     -7292.3783993622 -7.29E-01
    74 OT LS       0.86E-01    2.4                    -7293.1487685143
    75 OT CG       0.86E-01    5.6     0.00113415     -7293.1578726747 -7.79E-01
    76 OT LS       0.77E-01    2.4                    -7293.8046427837
    77 OT CG       0.77E-01    5.6     0.00108795     -7293.8120540410 -6.54E-01
    78 OT LS       0.82E-01    2.4                    -7294.4497611496
    79 OT CG       0.82E-01    5.6     0.00104511     -7294.4509594000 -6.39E-01
    80 OT LS       0.84E-01    2.4                    -7295.0442904183
    81 OT CG       0.84E-01    5.6     0.00103812     -7295.0443664960 -5.93E-01
    82 OT LS       0.86E-01    2.4                    -7295.6451557215
    83 OT CG       0.86E-01    5.6     0.00098096     -7295.6457128391 -6.01E-01
    84 OT LS       0.79E-01    2.4                    -7296.1415952930
    85 OT CG       0.79E-01    5.6     0.00097097     -7296.1457928544 -5.00E-01
    86 OT LS       0.80E-01    2.5                    -7296.6383071347
    87 OT CG       0.80E-01    5.6     0.00091447     -7296.6382807437 -4.92E-01
    88 OT LS       0.91E-01    2.4                    -7297.1251309041
    89 OT CG       0.91E-01    5.6     0.00092040     -7297.1325771630 -4.94E-01
    90 OT LS       0.80E-01    2.5                    -7297.5666664458
    91 OT CG       0.80E-01    5.6     0.00085835     -7297.5744054801 -4.42E-01
    92 OT LS       0.82E-01    2.5                    -7297.9702480264
    93 OT CG       0.82E-01    5.6     0.00082266     -7297.9704235447 -3.96E-01
    94 OT LS       0.85E-01    2.4                    -7298.3463608099
    95 OT CG       0.85E-01    5.6     0.00080605     -7298.3467367837 -3.76E-01
    96 OT LS       0.85E-01    2.4                    -7298.7061315677
    97 OT CG       0.85E-01    5.6     0.00079461     -7298.7061311092 -3.59E-01
    98 OT LS       0.79E-01    2.4                    -7299.0331027954
    99 OT CG       0.79E-01    5.6     0.00074917     -7299.0344754982 -3.28E-01
   100 OT LS       0.84E-01    2.4                    -7299.3426137157
   101 OT CG       0.84E-01    5.6     0.00071164     -7299.3434198591 -3.09E-01
   102 OT LS       0.90E-01    2.5                    -7299.6404165407
   103 OT CG       0.90E-01    5.6     0.00071229     -7299.6416417029 -2.98E-01
   104 OT LS       0.83E-01    2.4                    -7299.9160085790
   105 OT CG       0.83E-01    5.6     0.00070171     -7299.9177205046 -2.76E-01
   106 OT LS       0.80E-01    2.4                    -7300.1740438725
   107 OT CG       0.80E-01    5.6     0.00066197     -7300.1745395244 -2.57E-01
   108 OT LS       0.84E-01    2.4                    -7300.4154342289
   109 OT CG       0.84E-01    5.7     0.00063280     -7300.4160596604 -2.42E-01
   110 OT LS       0.89E-01    2.4                    -7300.6497317800
   111 OT CG       0.89E-01    5.6     0.00062424     -7300.6504847848 -2.34E-01
   112 OT LS       0.85E-01    2.4                    -7300.8656499240
   113 OT CG       0.85E-01    5.6     0.00061753     -7300.8662806386 -2.16E-01
   114 OT LS       0.82E-01    2.4                    -7301.0704070797
   115 OT CG       0.82E-01    5.6     0.00058489     -7301.0706331347 -2.04E-01
   116 OT LS       0.85E-01    2.4                    -7301.2613948025
   117 OT CG       0.85E-01    5.6     0.00056714     -7301.2616764413 -1.91E-01
   118 OT LS       0.86E-01    2.4                    -7301.4441613083
   119 OT CG       0.86E-01    5.6     0.00055900     -7301.4441965701 -1.83E-01
   120 OT LS       0.85E-01    2.4                    -7301.6185406657
   121 OT CG       0.85E-01    5.6     0.00054470     -7301.6185802882 -1.74E-01
   122 OT LS       0.86E-01    2.4                    -7301.7849404720
   123 OT CG       0.86E-01    5.6     0.00052480     -7301.7849465330 -1.66E-01
   124 OT LS       0.86E-01    2.4                    -7301.9396742898
   125 OT CG       0.86E-01    5.6     0.00051186     -7301.9396738617 -1.55E-01
   126 OT LS       0.85E-01    2.4                    -7302.0851031768
   127 OT CG       0.85E-01    5.6     0.00050280     -7302.0851303882 -1.45E-01
   128 OT LS       0.86E-01    2.4                    -7302.2267870706
   129 OT CG       0.86E-01    5.6     0.00048681     -7302.2267997002 -1.42E-01
   130 OT LS       0.87E-01    2.4                    -7302.3615674406
   131 OT CG       0.87E-01    5.6     0.00047504     -7302.3616027501 -1.35E-01
   132 OT LS       0.85E-01    2.4                    -7302.4879184917
   133 OT CG       0.85E-01    5.6     0.00046038     -7302.4879510852 -1.26E-01
   134 OT LS       0.87E-01    2.4                    -7302.6086849533
   135 OT CG       0.87E-01    5.6     0.00044806     -7302.6087169152 -1.21E-01
   136 OT LS       0.88E-01    2.4                    -7302.7251486921
   137 OT CG       0.88E-01    5.6     0.00043935     -7302.7251843813 -1.16E-01
   138 OT LS       0.87E-01    2.4                    -7302.8350719832
   139 OT CG       0.87E-01    5.6     0.00043231     -7302.8351067138 -1.10E-01
   140 OT LS       0.85E-01    2.4                    -7302.9384398276
   141 OT CG       0.85E-01    5.6     0.00041994     -7302.9385261628 -1.03E-01
   142 OT LS       0.86E-01    2.4                    -7303.0381294865
   143 OT CG       0.86E-01    5.6     0.00040796     -7303.0381695777 -9.96E-02
   144 OT LS       0.89E-01    2.4                    -7303.1349473542
   145 OT CG       0.89E-01    5.6     0.00040061     -7303.1350269330 -9.69E-02
   146 OT LS       0.88E-01    2.4                    -7303.2273301839
   147 OT CG       0.88E-01    5.6     0.00039382     -7303.2273418633 -9.23E-02
   148 OT LS       0.87E-01    2.4                    -7303.3151873258
   149 OT CG       0.87E-01    5.6     0.00038522     -7303.3152069911 -8.79E-02
   150 OT LS       0.86E-01    2.4                    -7303.3992997927
   151 OT CG       0.86E-01    5.6     0.00037506     -7303.3992997592 -8.41E-02
   152 OT LS       0.88E-01    2.4                    -7303.4806092940
   153 OT CG       0.88E-01    5.6     0.00036757     -7303.4806406166 -8.13E-02
   154 OT LS       0.88E-01    2.4                    -7303.5589870399
   155 OT CG       0.88E-01    5.6     0.00036108     -7303.5589876528 -7.83E-02
   156 OT LS       0.88E-01    2.4                    -7303.6340643395
   157 OT CG       0.88E-01    5.6     0.00035424     -7303.6340675089 -7.51E-02
   158 OT LS       0.87E-01    2.4                    -7303.7057587783
   159 OT CG       0.87E-01    5.6     0.00034615     -7303.7057630832 -7.17E-02
   160 OT LS       0.88E-01    2.4                    -7303.7744947478
   161 OT CG       0.88E-01    5.6     0.00033896     -7303.7744956748 -6.87E-02
   162 OT LS       0.88E-01    2.5                    -7303.8409457046
   163 OT CG       0.88E-01    5.6     0.00033250     -7303.8409500383 -6.65E-02
   164 OT LS       0.89E-01    2.4                    -7303.9051691450
   165 OT CG       0.89E-01    5.6     0.00032586     -7303.9051705204 -6.42E-02
   166 OT LS       0.88E-01    2.4                    -7303.9664868252
   167 OT CG       0.88E-01    5.6     0.00031969     -7303.9664887631 -6.13E-02
   168 OT LS       0.88E-01    2.5                    -7304.0253045497
   169 OT CG       0.88E-01    5.6     0.00031274     -7304.0253053078 -5.88E-02
   170 OT LS       0.89E-01    2.4                    -7304.0821829118
   171 OT CG       0.89E-01    5.6     0.00030645     -7304.0821890013 -5.69E-02
   172 OT LS       0.90E-01    2.4                    -7304.1374157395
   173 OT CG       0.90E-01    5.6     0.00030155     -7304.1374227681 -5.52E-02
   174 OT LS       0.88E-01    2.4                    -7304.1900345336
   175 OT CG       0.88E-01    5.6     0.00029607     -7304.1900479791 -5.26E-02
   176 OT LS       0.88E-01    2.4                    -7304.2407027511
   177 OT CG       0.88E-01    5.6     0.00029007     -7304.2407028437 -5.07E-02
   178 OT LS       0.89E-01    2.4                    -7304.2898884288
   179 OT CG       0.89E-01    5.6     0.00028442     -7304.2898948546 -4.92E-02
   180 OT LS       0.89E-01    2.4                    -7304.3373065412
   181 OT CG       0.89E-01    5.6     0.00028093     -7304.3373068303 -4.74E-02
   182 OT LS       0.88E-01    2.4                    -7304.3829640305
   183 OT CG       0.88E-01    5.6     0.00027540     -7304.3829714469 -4.57E-02
   184 OT LS       0.89E-01    2.5                    -7304.4271635960
   185 OT CG       0.89E-01    5.6     0.00026998     -7304.4271658855 -4.42E-02
   186 OT LS       0.90E-01    2.4                    -7304.4700843239
   187 OT CG       0.90E-01    5.6     0.00026558     -7304.4700889791 -4.29E-02
   188 OT LS       0.90E-01    2.4                    -7304.5115796059
   189 OT CG       0.90E-01    5.6     0.00026089     -7304.5115796691 -4.15E-02
   190 OT LS       0.90E-01    2.4                    -7304.5517189257
   191 OT CG       0.90E-01    5.6     0.00025669     -7304.5517192094 -4.01E-02
   192 OT LS       0.89E-01    2.4                    -7304.5903443075
   193 OT CG       0.89E-01    5.6     0.00025242     -7304.5903455830 -3.86E-02
   194 OT LS       0.89E-01    2.4                    -7304.6275830041
   195 OT CG       0.89E-01    5.6     0.00024823     -7304.6275833484 -3.72E-02
   196 OT LS       0.90E-01    2.4                    -7304.6637673858
   197 OT CG       0.90E-01    5.6     0.00024401     -7304.6637681791 -3.62E-02
   198 OT LS       0.90E-01    2.4                    -7304.6990524509
   199 OT CG       0.90E-01    5.6     0.00024024     -7304.6990554207 -3.53E-02
   200 OT LS       0.90E-01    2.4                    -7304.7331706457
   201 OT CG       0.90E-01    5.6     0.00023674     -7304.7331708591 -3.41E-02
   202 OT LS       0.90E-01    2.4                    -7304.7661235795
   203 OT CG       0.90E-01    5.6     0.00023305     -7304.7661245104 -3.30E-02
   204 OT LS       0.89E-01    2.4                    -7304.7979776007
   205 OT CG       0.89E-01    5.6     0.00023012     -7304.7979778163 -3.19E-02
   206 OT LS       0.89E-01    2.4                    -7304.8289279021
   207 OT CG       0.89E-01    5.6     0.00022561     -7304.8289282736 -3.10E-02
   208 OT LS       0.91E-01    2.4                    -7304.8591961919
   209 OT CG       0.91E-01    5.6     0.00022158     -7304.8592054960 -3.03E-02
   210 OT LS       0.91E-01    2.4                    -7304.8884996974
   211 OT CG       0.91E-01    5.6     0.00021880     -7304.8884999747 -2.93E-02
   212 OT LS       0.90E-01    2.4                    -7304.9167773518
   213 OT CG       0.90E-01    5.6     0.00021543     -7304.9167802258 -2.83E-02
   214 OT LS       0.91E-01    2.4                    -7304.9443309678
   215 OT CG       0.91E-01    5.6     0.00021225     -7304.9443316214 -2.76E-02
   216 OT LS       0.91E-01    2.4                    -7304.9711050501
   217 OT CG       0.91E-01    6.0     0.00020924     -7304.9711050829 -2.68E-02
   218 OT LS       0.91E-01    2.5                    -7304.9970855381
   219 OT CG       0.91E-01    5.6     0.00020627     -7304.9970855960 -2.60E-02
   220 OT LS       0.90E-01    2.4                    -7305.0222510613
   221 OT CG       0.90E-01    5.6     0.00020357     -7305.0222513434 -2.52E-02
   222 OT LS       0.90E-01    2.4                    -7305.0466445898
   223 OT CG       0.90E-01    5.6     0.00020088     -7305.0466451503 -2.44E-02
   224 OT LS       0.90E-01    2.4                    -7305.0703640397
   225 OT CG       0.90E-01    5.6     0.00019778     -7305.0703640910 -2.37E-02
   226 OT LS       0.90E-01    2.4                    -7305.0935553153
   227 OT CG       0.90E-01    5.6     0.00019440     -7305.0935570508 -2.32E-02
   228 OT LS       0.91E-01    2.4                    -7305.1161666261
   229 OT CG       0.91E-01    5.6     0.00019172     -7305.1161684530 -2.26E-02
   230 OT LS       0.91E-01    2.4                    -7305.1381080199
   231 OT CG       0.91E-01    5.6     0.00018920     -7305.1381081500 -2.19E-02
   232 OT LS       0.91E-01    2.4                    -7305.1594915765
   233 OT CG       0.91E-01    5.6     0.00018730     -7305.1594915932 -2.14E-02
   234 OT LS       0.90E-01    2.4                    -7305.1802026908
   235 OT CG       0.90E-01    5.6     0.00018475     -7305.1802055480 -2.07E-02
   236 OT LS       0.90E-01    2.4                    -7305.2004182849
   237 OT CG       0.90E-01    5.6     0.00018205     -7305.2004184558 -2.02E-02
   238 OT LS       0.91E-01    2.4                    -7305.2202428644
   239 OT CG       0.91E-01    5.6     0.00017899     -7305.2202448698 -1.98E-02
   240 OT LS       0.92E-01    2.4                    -7305.2395941768
   241 OT CG       0.92E-01    5.6     0.00017712     -7305.2395959613 -1.94E-02
   242 OT LS       0.91E-01    2.4                    -7305.2582998032
   243 OT CG       0.91E-01    5.6     0.00017527     -7305.2583028925 -1.87E-02
   244 OT LS       0.90E-01    2.4                    -7305.2763976531
   245 OT CG       0.90E-01    5.6     0.00017274     -7305.2764003518 -1.81E-02
   246 OT LS       0.91E-01    2.4                    -7305.2941461412
   247 OT CG       0.91E-01    5.6     0.00017010     -7305.2941476857 -1.77E-02
   248 OT LS       0.91E-01    2.4                    -7305.3114703998
   249 OT CG       0.91E-01    5.6     0.00016830     -7305.3114711675 -1.73E-02
   250 OT LS       0.91E-01    2.4                    -7305.3284150434
   251 OT CG       0.91E-01    5.6     0.00016612     -7305.3284150546 -1.69E-02
   252 OT LS       0.91E-01    2.4                    -7305.3449169052
   253 OT CG       0.91E-01    5.6     0.00016435     -7305.3449169063 -1.65E-02
   254 OT LS       0.91E-01    2.5                    -7305.3611080115
   255 OT CG       0.91E-01    5.6     0.00016248     -7305.3611081007 -1.62E-02
   256 OT LS       0.92E-01    2.5                    -7305.3769650995
   257 OT CG       0.92E-01    5.6     0.00016070     -7305.3769651547 -1.59E-02
   258 OT LS       0.91E-01    2.4                    -7305.3924208222
   259 OT CG       0.91E-01    5.6     0.00015906     -7305.3924210033 -1.55E-02
   260 OT LS       0.91E-01    2.4                    -7305.4075395081
   261 OT CG       0.91E-01    5.6     0.00015730     -7305.4075395428 -1.51E-02
   262 OT LS       0.91E-01    2.4                    -7305.4222388861
   263 OT CG       0.91E-01    5.6     0.00015560     -7305.4222394003 -1.47E-02
   264 OT LS       0.91E-01    2.4                    -7305.4367083521
   265 OT CG       0.91E-01    5.6     0.00015321     -7305.4367088336 -1.45E-02
   266 OT LS       0.92E-01    2.5                    -7305.4509315260
   267 OT CG       0.92E-01    5.6     0.00015134     -7305.4509342726 -1.42E-02
   268 OT LS       0.93E-01    2.4                    -7305.4648249423
   269 OT CG       0.93E-01    5.6     0.00014991     -7305.4648249529 -1.39E-02
   270 OT LS       0.92E-01    2.4                    -7305.4783306999
   271 OT CG       0.92E-01    5.6     0.00014840     -7305.4783318283 -1.35E-02
   272 OT LS       0.92E-01    2.4                    -7305.4915830135
   273 OT CG       0.92E-01    5.6     0.00014688     -7305.4915830272 -1.33E-02
   274 OT LS       0.91E-01    2.5                    -7305.5045070836
   275 OT CG       0.91E-01    5.6     0.00014524     -7305.5045073540 -1.29E-02
   276 OT LS       0.92E-01    2.5                    -7305.5171637722
   277 OT CG       0.92E-01    5.6     0.00014377     -7305.5171638049 -1.27E-02
   278 OT LS       0.91E-01    2.5                    -7305.5295143649
   279 OT CG       0.91E-01    5.6     0.00014234     -7305.5295145623 -1.24E-02
   280 OT LS       0.91E-01    2.5                    -7305.5415824860
   281 OT CG       0.91E-01    5.6     0.00014073     -7305.5415826130 -1.21E-02
   282 OT LS       0.91E-01    2.5                    -7305.5534140332
   283 OT CG       0.91E-01    5.6     0.00013900     -7305.5534141287 -1.18E-02
   284 OT LS       0.92E-01    2.5                    -7305.5650415927
   285 OT CG       0.92E-01    5.6     0.00013716     -7305.5650422263 -1.16E-02
   286 OT LS       0.93E-01    2.5                    -7305.5764624816
   287 OT CG       0.93E-01    5.6     0.00013537     -7305.5764633377 -1.14E-02
   288 OT LS       0.93E-01    2.5                    -7305.5876124225
   289 OT CG       0.93E-01    5.6     0.00013435     -7305.5876124784 -1.11E-02
   290 OT LS       0.92E-01    2.4                    -7305.5985049040
   291 OT CG       0.92E-01    5.6     0.00013287     -7305.5985056356 -1.09E-02
   292 OT LS       0.92E-01    2.4                    -7305.6091362244
   293 OT CG       0.92E-01    5.6     0.00013137     -7305.6091362885 -1.06E-02
   294 OT LS       0.92E-01    2.4                    -7305.6195751997
   295 OT CG       0.92E-01    5.6     0.00013010     -7305.6195754242 -1.04E-02
   296 OT LS       0.91E-01    2.4                    -7305.6297024972
   297 OT CG       0.91E-01    5.6     0.00012885     -7305.6297036949 -1.01E-02
   298 OT LS       0.91E-01    2.4                    -7305.6396285981
   299 OT CG       0.91E-01    5.6     0.00012749     -7305.6396286070 -9.92E-03
   300 OT LS       0.91E-01    2.4                    -7305.6493686715
   301 OT CG       0.91E-01    5.6     0.00012605     -7305.6493687249 -9.74E-03
   302 OT LS       0.92E-01    2.4                    -7305.6589377049
   303 OT CG       0.92E-01    5.6     0.00012479     -7305.6589379312 -9.57E-03
   304 OT LS       0.92E-01    2.4                    -7305.6683436721
   305 OT CG       0.92E-01    5.6     0.00012321     -7305.6683437540 -9.41E-03
   306 OT LS       0.93E-01    2.4                    -7305.6775784284
   307 OT CG       0.93E-01    5.6     0.00012254     -7305.6775789063 -9.24E-03
   308 OT LS       0.92E-01    2.4                    -7305.6866068590
   309 OT CG       0.92E-01    5.6     0.00012133     -7305.6866081152 -9.03E-03
   310 OT LS       0.92E-01    2.4                    -7305.6954768191
   311 OT CG       0.92E-01    5.6     0.00012012     -7305.6954768490 -8.87E-03
   312 OT LS       0.92E-01    2.4                    -7305.7041956494
   313 OT CG       0.92E-01    5.6     0.00011874     -7305.7041957235 -8.72E-03
   314 OT LS       0.92E-01    2.4                    -7305.7127248028
   315 OT CG       0.92E-01    5.6     0.00011764     -7305.7127248122 -8.53E-03
   316 OT LS       0.92E-01    2.4                    -7305.7210966498
   317 OT CG       0.92E-01    5.6     0.00011653     -7305.7210966499 -8.37E-03
   318 OT LS       0.92E-01    2.4                    -7305.7292941096
   319 OT CG       0.92E-01    5.6     0.00011525     -7305.7292941499 -8.20E-03
   320 OT LS       0.93E-01    2.4                    -7305.7373612357
   321 OT CG       0.93E-01    5.6     0.00011442     -7305.7373615336 -8.07E-03
   322 OT LS       0.92E-01    2.4                    -7305.7452471245
   323 OT CG       0.92E-01    5.6     0.00011349     -7305.7452476715 -7.89E-03
   324 OT LS       0.91E-01    2.4                    -7305.7529578718
   325 OT CG       0.91E-01    5.6     0.00011262     -7305.7529581721 -7.71E-03
   326 OT LS       0.91E-01    2.4                    -7305.7605473488
   327 OT CG       0.91E-01    5.6     0.00011130     -7305.7605473506 -7.59E-03
   328 OT LS       0.92E-01    2.4                    -7305.7680467418
   329 OT CG       0.92E-01    5.6     0.00011011     -7305.7680477738 -7.50E-03
   330 OT LS       0.93E-01    2.4                    -7305.7754120914
   331 OT CG       0.93E-01    5.6     0.00010909     -7305.7754121645 -7.36E-03
   332 OT LS       0.93E-01    2.4                    -7305.7826302082
   333 OT CG       0.93E-01    5.6     0.00010823     -7305.7826302240 -7.22E-03
   334 OT LS       0.92E-01    2.4                    -7305.7897065556
   335 OT CG       0.92E-01    5.6     0.00010712     -7305.7897066643 -7.08E-03
   336 OT LS       0.93E-01    2.5                    -7305.7966730955
   337 OT CG       0.93E-01    5.6     0.00010612     -7305.7966732579 -6.97E-03
   338 OT LS       0.93E-01    2.4                    -7305.8035060019
   339 OT CG       0.93E-01    5.6     0.00010521     -7305.8035060046 -6.83E-03
   340 OT LS       0.92E-01    2.4                    -7305.8102035320
   341 OT CG       0.92E-01    5.6     0.00010429     -7305.8102035839 -6.70E-03
   342 OT LS       0.92E-01    2.4                    -7305.8167730009
   343 OT CG       0.92E-01    5.6     0.00010332     -7305.8167730238 -6.57E-03
   344 OT LS       0.92E-01    2.4                    -7305.8231868701
   345 OT CG       0.92E-01    5.6     0.00010259     -7305.8231870376 -6.41E-03
   346 OT LS       0.91E-01    2.4                    -7305.8294894677
   347 OT CG       0.91E-01    5.6     0.00010134     -7305.8294895392 -6.30E-03
   348 OT LS       0.92E-01    2.5                    -7305.8356706485
   349 OT CG       0.92E-01    5.6     0.00010024     -7305.8356707996 -6.18E-03
   350 OT LS       0.93E-01    2.4                    -7305.8417790017
   351 OT CG       0.93E-01    5.6     0.00009913     -7305.8417796050 -6.11E-03
   352 OT LS       0.93E-01    2.4                    -7305.8477620623
   353 OT CG       0.93E-01    5.6     0.00009827     -7305.8477620756 -5.98E-03
   354 OT LS       0.93E-01    2.4                    -7305.8536470756
   355 OT CG       0.93E-01    5.6     0.00009749     -7305.8536470816 -5.89E-03
   356 OT LS       0.93E-01    2.4                    -7305.8594209548
   357 OT CG       0.93E-01    5.6     0.00009671     -7305.8594210107 -5.77E-03
   358 OT LS       0.93E-01    2.4                    -7305.8650942209
   359 OT CG       0.93E-01    5.6     0.00009615     -7305.8650942389 -5.67E-03
   360 OT LS       0.92E-01    2.4                    -7305.8706513416
   361 OT CG       0.92E-01    5.6     0.00009550     -7305.8706517925 -5.56E-03
   362 OT LS       0.92E-01    2.4                    -7305.8761310396
   363 OT CG       0.92E-01    5.6     0.00009459     -7305.8761310415 -5.48E-03
   364 OT LS       0.92E-01    2.4                    -7305.8815379537
   365 OT CG       0.92E-01    5.6     0.00009364     -7305.8815381365 -5.41E-03
   366 OT LS       0.93E-01    2.4                    -7305.8868797127
   367 OT CG       0.93E-01    5.6     0.00009287     -7305.8868800619 -5.34E-03
   368 OT LS       0.93E-01    2.4                    -7305.8921200080
   369 OT CG       0.93E-01    5.6     0.00009227     -7305.8921200523 -5.24E-03
   370 OT LS       0.92E-01    2.4                    -7305.8972713812
   371 OT CG       0.92E-01    5.6     0.00009148     -7305.8972714641 -5.15E-03
   372 OT LS       0.93E-01    2.4                    -7305.9023639332
   373 OT CG       0.93E-01    5.6     0.00009078     -7305.9023641001 -5.09E-03
   374 OT LS       0.93E-01    2.4                    -7305.9073759865
   375 OT CG       0.93E-01    5.6     0.00009025     -7305.9073759887 -5.01E-03
   376 OT LS       0.92E-01    2.4                    -7305.9122945983
   377 OT CG       0.92E-01    5.6     0.00008977     -7305.9122948550 -4.92E-03
   378 OT LS       0.92E-01    2.4                    -7305.9171528953
   379 OT CG       0.92E-01    5.6     0.00008909     -7305.9171529111 -4.86E-03
   380 OT LS       0.92E-01    2.4                    -7305.9219452957
   381 OT CG       0.92E-01    5.6     0.00008825     -7305.9219453099 -4.79E-03
   382 OT LS       0.93E-01    2.4                    -7305.9266835187
   383 OT CG       0.93E-01    5.6     0.00008761     -7305.9266837950 -4.74E-03
   384 OT LS       0.93E-01    2.4                    -7305.9313542828
   385 OT CG       0.93E-01    5.6     0.00008684     -7305.9313542830 -4.67E-03
   386 OT LS       0.93E-01    2.4                    -7305.9359591120
   387 OT CG       0.93E-01    5.6     0.00008628     -7305.9359591689 -4.60E-03
   388 OT LS       0.93E-01    2.4                    -7305.9404725047
   389 OT CG       0.93E-01    5.6     0.00008579     -7305.9404727236 -4.51E-03
   390 OT LS       0.92E-01    2.4                    -7305.9449092831
   391 OT CG       0.92E-01    5.6     0.00008511     -7305.9449094319 -4.44E-03
   392 OT LS       0.92E-01    2.4                    -7305.9492967849
   393 OT CG       0.92E-01    5.6     0.00008444     -7305.9492968791 -4.39E-03
   394 OT LS       0.93E-01    2.4                    -7305.9536234160
   395 OT CG       0.93E-01    5.6     0.00008381     -7305.9536234270 -4.33E-03
   396 OT LS       0.93E-01    2.4                    -7305.9578955474
   397 OT CG       0.93E-01    5.6     0.00008339     -7305.9578955724 -4.27E-03
   398 OT LS       0.92E-01    2.4                    -7305.9620986821
   399 OT CG       0.92E-01    5.6     0.00008276     -7305.9620988391 -4.20E-03
   400 OT LS       0.92E-01    2.4                    -7305.9662476922
   401 OT CG       0.92E-01    5.6     0.00008207     -7305.9662477089 -4.15E-03
   402 OT LS       0.92E-01    2.4                    -7305.9703240677
   403 OT CG       0.92E-01    5.6     0.00008147     -7305.9703240719 -4.08E-03
   404 OT LS       0.92E-01    2.4                    -7305.9743379551
   405 OT CG       0.92E-01    5.6     0.00008076     -7305.9743379569 -4.01E-03
   406 OT LS       0.92E-01    2.4                    -7305.9782844801
   407 OT CG       0.92E-01    5.6     0.00007993     -7305.9782844812 -3.95E-03
   408 OT LS       0.93E-01    2.4                    -7305.9821726666
   409 OT CG       0.93E-01    5.6     0.00007929     -7305.9821728003 -3.89E-03
   410 OT LS       0.93E-01    2.4                    -7305.9860066805
   411 OT CG       0.93E-01    5.6     0.00007864     -7305.9860066921 -3.83E-03
   412 OT LS       0.93E-01    2.4                    -7305.9897857880
   413 OT CG       0.93E-01    5.6     0.00007820     -7305.9897858061 -3.78E-03
   414 OT LS       0.93E-01    2.4                    -7305.9934947752
   415 OT CG       0.93E-01    5.6     0.00007775     -7305.9934949814 -3.71E-03
   416 OT LS       0.92E-01    2.4                    -7305.9971486746
   417 OT CG       0.92E-01    5.6     0.00007721     -7305.9971487190 -3.65E-03
   418 OT LS       0.92E-01    2.4                    -7306.0007548583
   419 OT CG       0.92E-01    5.6     0.00007656     -7306.0007548597 -3.61E-03
   420 OT LS       0.93E-01    2.4                    -7306.0043128975
   421 OT CG       0.93E-01    5.6     0.00007617     -7306.0043129355 -3.56E-03
   422 OT LS       0.92E-01    2.4                    -7306.0078128411
   423 OT CG       0.92E-01    5.6     0.00007554     -7306.0078129665 -3.50E-03
   424 OT LS       0.92E-01    2.4                    -7306.0112537349
   425 OT CG       0.92E-01    5.6     0.00007491     -7306.0112537356 -3.44E-03
   426 OT LS       0.93E-01    2.4                    -7306.0146618579
   427 OT CG       0.93E-01    5.6     0.00007404     -7306.0146620310 -3.41E-03
   428 OT LS       0.94E-01    2.4                    -7306.0180247963
   429 OT CG       0.94E-01    5.6     0.00007358     -7306.0180251231 -3.36E-03
   430 OT LS       0.93E-01    2.5                    -7306.0213221674
   431 OT CG       0.93E-01    5.6     0.00007325     -7306.0213223493 -3.30E-03
   432 OT LS       0.92E-01    2.4                    -7306.0245653405
   433 OT CG       0.92E-01    5.6     0.00007268     -7306.0245655168 -3.24E-03
   434 OT LS       0.93E-01    2.4                    -7306.0277795202
   435 OT CG       0.93E-01    5.6     0.00007218     -7306.0277796652 -3.21E-03
   436 OT LS       0.93E-01    2.4                    -7306.0309532430
   437 OT CG       0.93E-01    5.6     0.00007181     -7306.0309532450 -3.17E-03
   438 OT LS       0.93E-01    2.4                    -7306.0340898783
   439 OT CG       0.93E-01    5.6     0.00007149     -7306.0340898857 -3.14E-03
   440 OT LS       0.92E-01    2.4                    -7306.0371775327
   441 OT CG       0.92E-01    5.6     0.00007103     -7306.0371776718 -3.09E-03
   442 OT LS       0.92E-01    2.4                    -7306.0402325575
   443 OT CG       0.92E-01    5.6     0.00007045     -7306.0402325746 -3.05E-03
   444 OT LS       0.93E-01    2.4                    -7306.0432459173
   445 OT CG       0.93E-01    5.6     0.00006999     -7306.0432459376 -3.01E-03
   446 OT LS       0.93E-01    2.4                    -7306.0462234979
   447 OT CG       0.93E-01    5.6     0.00006943     -7306.0462235005 -2.98E-03
   448 OT LS       0.93E-01    2.4                    -7306.0491604102
   449 OT CG       0.93E-01    5.6     0.00006893     -7306.0491604249 -2.94E-03
   450 OT LS       0.93E-01    2.4                    -7306.0520521942
   451 OT CG       0.93E-01    5.6     0.00006855     -7306.0520521963 -2.89E-03
   452 OT LS       0.93E-01    2.5                    -7306.0549038185
   453 OT CG       0.93E-01    5.6     0.00006801     -7306.0549038417 -2.85E-03
   454 OT LS       0.93E-01    2.4                    -7306.0577206770
   455 OT CG       0.93E-01    5.6     0.00006770     -7306.0577207101 -2.82E-03
   456 OT LS       0.93E-01    2.4                    -7306.0605015850
   457 OT CG       0.93E-01    5.6     0.00006722     -7306.0605016267 -2.78E-03
   458 OT LS       0.92E-01    2.4                    -7306.0632404645
   459 OT CG       0.92E-01    5.6     0.00006687     -7306.0632404673 -2.74E-03
   460 OT LS       0.92E-01    2.4                    -7306.0659389065
   461 OT CG       0.92E-01    5.6     0.00006642     -7306.0659389597 -2.70E-03
   462 OT LS       0.93E-01    2.5                    -7306.0686131669
   463 OT CG       0.93E-01    5.6     0.00006590     -7306.0686132240 -2.67E-03
   464 OT LS       0.93E-01    2.5                    -7306.0712664444
   465 OT CG       0.93E-01    5.6     0.00006546     -7306.0712666044 -2.65E-03
   466 OT LS       0.93E-01    2.4                    -7306.0738829298
   467 OT CG       0.93E-01    5.6     0.00006508     -7306.0738829313 -2.62E-03
   468 OT LS       0.93E-01    2.4                    -7306.0764589585
   469 OT CG       0.93E-01    5.6     0.00006467     -7306.0764589985 -2.58E-03
   470 OT LS       0.93E-01    2.4                    -7306.0790061989
   471 OT CG       0.93E-01    5.6     0.00006420     -7306.0790062036 -2.55E-03
   472 OT LS       0.93E-01    2.4                    -7306.0815108654
   473 OT CG       0.93E-01    5.6     0.00006383     -7306.0815108763 -2.50E-03
   474 OT LS       0.92E-01    2.4                    -7306.0839749797
   475 OT CG       0.92E-01    5.6     0.00006330     -7306.0839750376 -2.46E-03
   476 OT LS       0.93E-01    2.4                    -7306.0864044242
   477 OT CG       0.93E-01    5.6     0.00006287     -7306.0864044396 -2.43E-03
   478 OT LS       0.93E-01    2.5                    -7306.0888019551
   479 OT CG       0.93E-01    5.6     0.00006238     -7306.0888019552 -2.40E-03
   480 OT LS       0.93E-01    2.4                    -7306.0911666563
   481 OT CG       0.93E-01    5.6     0.00006205     -7306.0911666672 -2.36E-03
   482 OT LS       0.93E-01    2.5                    -7306.0935012814
   483 OT CG       0.93E-01    5.6     0.00006159     -7306.0935012963 -2.33E-03
   484 OT LS       0.93E-01    2.4                    -7306.0958100619
   485 OT CG       0.93E-01    5.6     0.00006130     -7306.0958100984 -2.31E-03
   486 OT LS       0.93E-01    2.4                    -7306.0980944161
   487 OT CG       0.93E-01    5.6     0.00006082     -7306.0980944207 -2.28E-03
   488 OT LS       0.93E-01    2.4                    -7306.1003456625
   489 OT CG       0.93E-01    5.6     0.00006043     -7306.1003456656 -2.25E-03
   490 OT LS       0.93E-01    2.4                    -7306.1025688252
   491 OT CG       0.93E-01    5.6     0.00006008     -7306.1025688254 -2.22E-03
   492 OT LS       0.93E-01    2.4                    -7306.1047572103
   493 OT CG       0.93E-01    5.6     0.00005955     -7306.1047572446 -2.19E-03
   494 OT LS       0.93E-01    2.4                    -7306.1069157325
   495 OT CG       0.93E-01    5.6     0.00005923     -7306.1069157646 -2.16E-03
   496 OT LS       0.93E-01    2.4                    -7306.1090454351
   497 OT CG       0.93E-01    5.6     0.00005873     -7306.1090454530 -2.13E-03
   498 OT LS       0.93E-01    2.4                    -7306.1111439025
   499 OT CG       0.93E-01    5.6     0.00005847     -7306.1111439129 -2.10E-03
   500 OT LS       0.93E-01    2.4                    -7306.1132161138

  Leaving inner SCF loop after reaching   500 steps.


  Electronic density on regular grids:      -3251.9999971204        0.0000028796
  Core density on regular grids:             3251.9999997991       -0.0000002009
  Total charge density on r-space grids:        0.0000026787
  Total charge density g-space grids:           0.0000026787

  Overlap energy of the core charge distribution:               0.00001661639357
  Self energy of the core charge distribution:             -18790.04278290520233
  Core Hamiltonian energy:                                   5332.29988095392400
  Hartree energy:                                            7860.95668443969953
  Exchange-correlation energy:                              -1707.20211350517570
  Dispersion energy:                                           -2.12490171338749

  Total energy:                                             -7306.11321611375024

  outer SCF iter =    1 RMS gradient =   0.58E-04 energy =      -7306.1132161138

  ----------------------------------- OT ---------------------------------------
  Minimizer      : CG                  : conjugate gradient
  Preconditioner : FULL_ALL            : diagonalization, state selective
  Precond_solver : DEFAULT
  Line search    : 2PNT                : 2 energies, one gradient
  stepsize       :    0.15000000                  energy_gap     :    0.00100000
  eps_taylor     :   0.10000E-15                  max_taylor     :             4
  ----------------------------------- OT ---------------------------------------

  Step     Update method      Time    Convergence         Total energy    Change
  ------------------------------------------------------------------------------
     1 OT CG       0.15E+00   26.1     0.00040623     -7306.1132161390 -2.07E-03
     2 OT LS       0.25E+00    2.2                    -7306.3397096931
     3 OT CG       0.25E+00    5.4     0.00002486     -7306.3817100156 -2.68E-01
     4 OT LS       0.79E-01    2.2                    -7306.3805772526
     5 OT CG       0.79E-01    5.3     0.00000801     -7306.3820315214 -3.22E-04
     6 OT LS       0.67E-01    2.1                    -7306.3820589217
     7 OT CG       0.67E-01    5.2     0.00000327     -7306.3820598342 -2.83E-05
     8 OT LS       0.12E+00    2.2                    -7306.3820665568
     9 OT CG       0.12E+00    5.1     0.00000098     -7306.3820680738 -8.24E-06

  *** SCF run converged in     9 steps ***


  Electronic density on regular grids:      -3251.9999971204        0.0000028796
  Core density on regular grids:             3251.9999997991       -0.0000002009
  Total charge density on r-space grids:        0.0000026786
  Total charge density g-space grids:           0.0000026786

  Overlap energy of the core charge distribution:               0.00001661639357
  Self energy of the core charge distribution:             -18790.04278290520233
  Core Hamiltonian energy:                                   5332.04315491326270
  Hartree energy:                                            7860.99714297182072
  Exchange-correlation energy:                              -1707.25469795667027
  Dispersion energy:                                           -2.12490171338749

  Total energy:                                             -7306.38206807378538

  outer SCF iter =    2 RMS gradient =   0.98E-06 energy =      -7306.3820680738
  outer SCF loop converged in   2 iterations or  509 steps


 ENERGY| Total FORCE_EVAL ( QS ) energy [a.u.]:            -7306.382068766423799

 ATOMIC FORCES in [a.u.]

 # Atom   Kind   Element          X              Y              Z
      1      1      Ti          0.00000000     0.00000000     0.00000000
      2      2      Si          0.00000000     0.00000000     0.00000000
      3      2      Si          0.00000000     0.00000000     0.00000000
      4      2      Si          0.00000000     0.00000000     0.00000000
      5      2      Si          0.00000000     0.00000000     0.00000000
      6      2      Si          0.00000000     0.00000000     0.00000000
      7      2      Si          0.00000000     0.00000000     0.00000000
      8      2      Si          0.00000000     0.00000000     0.00000000
      9      2      Si          0.00000000     0.00000000     0.00000000
     10      2      Si          0.00000000     0.00000000     0.00000000
     11      2      Si          0.00000000     0.00000000     0.00000000
     12      2      Si          0.00000000     0.00000000     0.00000000
     13      2      Si          0.00000000     0.00000000     0.00000000
     14      2      Si          0.00000000     0.00000000     0.00000000
     15      2      Si          0.00000000     0.00000000     0.00000000
     16      2      Si          0.00000000     0.00000000     0.00000000
     17      2      Si          0.00000000     0.00000000     0.00000000
     18      2      Si          0.00000000     0.00000000     0.00000000
     19      2      Si          0.00000000     0.00000000     0.00000000
     20      2      Si          0.00000000     0.00000000     0.00000000
     21      2      Si          0.00000000     0.00000000     0.00000000
     22      2      Si          0.00000000     0.00000000     0.00000000
     23      2      Si          0.00000000     0.00000000     0.00000000
     24      2      Si          0.00000000     0.00000000     0.00000000
     25      2      Si          0.00000000     0.00000000     0.00000000
     26      2      Si          0.00000000     0.00000000     0.00000000
     27      2      Si          0.00000000     0.00000000     0.00000000
     28      2      Si          0.00000000     0.00000000     0.00000000
     29      2      Si          0.00000000     0.00000000     0.00000000
     30      2      Si          0.00000000     0.00000000     0.00000000
     31      2      Si          0.00000000     0.00000000     0.00000000
     32      2      Si          0.00000000     0.00000000     0.00000000
     33      2      Si          0.00000000     0.00000000     0.00000000
     34      2      Si          0.00000000     0.00000000     0.00000000
     35      2      Si          0.00000000     0.00000000     0.00000000
     36      2      Si          0.00000000     0.00000000     0.00000000
     37      2      Si          0.00000000     0.00000000     0.00000000
     38      2      Si          0.00000000     0.00000000     0.00000000
     39      2      Si          0.00000000     0.00000000     0.00000000
     40      2      Si          0.00000000     0.00000000     0.00000000
     41      2      Si          0.00000000     0.00000000     0.00000000
     42      2      Si          0.00000000     0.00000000     0.00000000
     43      2      Si          0.00000000     0.00000000     0.00000000
     44      2      Si          0.00000000     0.00000000     0.00000000
     45      2      Si          0.00000000     0.00000000     0.00000000
     46      2      Si          0.00000000     0.00000000     0.00000000
     47      2      Si          0.00000000     0.00000000     0.00000000
     48      2      Si          0.00000000     0.00000000     0.00000000
     49      2      Si          0.00000000     0.00000000     0.00000000
     50      2      Si          0.00000000     0.00000000     0.00000000
     51      2      Si          0.00000000     0.00000000     0.00000000
     52      2      Si          0.00000000     0.00000000     0.00000000
     53      2      Si          0.00000000     0.00000000     0.00000000
     54      2      Si          0.00000000     0.00000000     0.00000000
     55      2      Si          0.00000000     0.00000000     0.00000000
     56      2      Si          0.00000000     0.00000000     0.00000000
     57      2      Si          0.00000000     0.00000000     0.00000000
     58      2      Si          0.00000000     0.00000000     0.00000000
     59      2      Si          0.00000000     0.00000000     0.00000000
     60      2      Si          0.00000000     0.00000000     0.00000000
     61      2      Si          0.00000000     0.00000000     0.00000000
     62      2      Si          0.00000000     0.00000000     0.00000000
     63      2      Si          0.00000000     0.00000000     0.00000000
     64      2      Si          0.00000000     0.00000000     0.00000000
     65      2      Si          0.00000000     0.00000000     0.00000000
     66      2      Si          0.00000000     0.00000000     0.00000000
     67      2      Si          0.00000000     0.00000000     0.00000000
     68      2      Si          0.00000000     0.00000000     0.00000000
     69      2      Si          0.00000000     0.00000000     0.00000000
     70      2      Si          0.00000000     0.00000000     0.00000000
     71      2      Si          0.00000000     0.00000000     0.00000000
     72      2      Si          0.00000000     0.00000000     0.00000000
     73      2      Si          0.00000000     0.00000000     0.00000000
     74      2      Si          0.00000000     0.00000000     0.00000000
     75      2      Si          0.00000000     0.00000000     0.00000000
     76      2      Si          0.00000000     0.00000000     0.00000000
     77      2      Si          0.00000000     0.00000000     0.00000000
     78      2      Si          0.00000000     0.00000000     0.00000000
     79      2      Si          0.00000000     0.00000000     0.00000000
     80      2      Si          0.00000000     0.00000000     0.00000000
     81      2      Si          0.00000000     0.00000000     0.00000000
     82      2      Si          0.00000000     0.00000000     0.00000000
     83      2      Si          0.00000000     0.00000000     0.00000000
     84      2      Si          0.00000000     0.00000000     0.00000000
     85      2      Si          0.00000000     0.00000000     0.00000000
     86      2      Si          0.00000000     0.00000000     0.00000000
     87      2      Si          0.00000000     0.00000000     0.00000000
     88      2      Si          0.00000000     0.00000000     0.00000000
     89      2      Si          0.00000000     0.00000000     0.00000000
     90      2      Si          0.00000000     0.00000000     0.00000000
     91      2      Si          0.00000000     0.00000000     0.00000000
     92      2      Si          0.00000000     0.00000000     0.00000000
     93      2      Si          0.00000000     0.00000000     0.00000000
     94      2      Si          0.00000000     0.00000000     0.00000000
     95      2      Si          0.00000000     0.00000000     0.00000000
     96      2      Si          0.00000000     0.00000000     0.00000000
     97      2      Si          0.00000000     0.00000000     0.00000000
     98      2      Si          0.00000000     0.00000000     0.00000000
     99      2      Si          0.00000000     0.00000000     0.00000000
    100      2      Si          0.00000000     0.00000000     0.00000000
    101      2      Si          0.00000000     0.00000000     0.00000000
    102      2      Si          0.00000000     0.00000000     0.00000000
    103      2      Si          0.00000000     0.00000000     0.00000000
    104      2      Si          0.00000000     0.00000000     0.00000000
    105      2      Si          0.00000000     0.00000000     0.00000000
    106      2      Si          0.00000000     0.00000000     0.00000000
    107      2      Si          0.00000000     0.00000000     0.00000000
    108      2      Si          0.00000000     0.00000000     0.00000000
    109      2      Si          0.00000000     0.00000000     0.00000000
    110      2      Si          0.00000000     0.00000000     0.00000000
    111      2      Si          0.00000000     0.00000000     0.00000000
    112      2      Si          0.00000000     0.00000000     0.00000000
    113      2      Si          0.00000000     0.00000000     0.00000000
    114      2      Si          0.00000000     0.00000000     0.00000000
    115      2      Si          0.00000000     0.00000000     0.00000000
    116      2      Si          0.00000000     0.00000000     0.00000000
    117      2      Si          0.00000000     0.00000000     0.00000000
    118      2      Si          0.00000000     0.00000000     0.00000000
    119      2      Si          0.00000000     0.00000000     0.00000000
    120      2      Si          0.00000000     0.00000000     0.00000000
    121      2      Si          0.00000000     0.00000000     0.00000000
    122      2      Si          0.00000000     0.00000000     0.00000000
    123      2      Si          0.00000000     0.00000000     0.00000000
    124      2      Si          0.00000000     0.00000000     0.00000000
    125      2      Si          0.00000000     0.00000000     0.00000000
    126      2      Si          0.00000000     0.00000000     0.00000000
    127      2      Si          0.00000000     0.00000000     0.00000000
    128      2      Si          0.00000000     0.00000000     0.00000000
    129      2      Si          0.00000000     0.00000000     0.00000000
    130      2      Si          0.00000000     0.00000000     0.00000000
    131      2      Si          0.00000000     0.00000000     0.00000000
    132      2      Si          0.00000000     0.00000000     0.00000000
    133      2      Si          0.00000000     0.00000000     0.00000000
    134      2      Si          0.00000000     0.00000000     0.00000000
    135      2      Si          0.00000000     0.00000000     0.00000000
    136      2      Si          0.00000000     0.00000000     0.00000000
    137      2      Si          0.00000000     0.00000000     0.00000000
    138      2      Si          0.00000000     0.00000000     0.00000000
    139      2      Si          0.00000000     0.00000000     0.00000000
    140      2      Si          0.00000000     0.00000000     0.00000000
    141      2      Si          0.00000000     0.00000000     0.00000000
    142      2      Si          0.00000000     0.00000000     0.00000000
    143      2      Si          0.00000000     0.00000000     0.00000000
    144      2      Si          0.00000000     0.00000000     0.00000000
    145      2      Si          0.00000000     0.00000000     0.00000000
    146      2      Si          0.00000000     0.00000000     0.00000000
    147      2      Si          0.00000000     0.00000000     0.00000000
    148      2      Si          0.00000000     0.00000000     0.00000000
    149      2      Si          0.00000000     0.00000000     0.00000000
    150      2      Si          0.00000000     0.00000000     0.00000000
    151      2      Si          0.00000000     0.00000000     0.00000000
    152      2      Si          0.00000000     0.00000000     0.00000000
    153      2      Si          0.00000000     0.00000000     0.00000000
    154      2      Si          0.00000000     0.00000000     0.00000000
    155      2      Si          0.00000000     0.00000000     0.00000000
    156      2      Si          0.00000000     0.00000000     0.00000000
    157      2      Si          0.00000000     0.00000000     0.00000000
    158      2      Si          0.00000000     0.00000000     0.00000000
    159      2      Si          0.00000000     0.00000000     0.00000000
    160      2      Si          0.00000000     0.00000000     0.00000000
    161      2      Si          0.00000000     0.00000000     0.00000000
    162      2      Si          0.00000000     0.00000000     0.00000000
    163      2      Si          0.00000000     0.00000000     0.00000000
    164      2      Si          0.00000000     0.00000000     0.00000000
    165      2      Si          0.00000000     0.00000000     0.00000000
    166      2      Si          0.00000000     0.00000000     0.00000000
    167      2      Si          0.00000000     0.00000000     0.00000000
    168      2      Si          0.00000000     0.00000000     0.00000000
    169      2      Si          0.00000000     0.00000000     0.00000000
    170      2      Si          0.00000000     0.00000000     0.00000000
    171      2      Si          0.00000000     0.00000000     0.00000000
    172      2      Si          0.00000000     0.00000000     0.00000000
    173      2      Si          0.00000000     0.00000000     0.00000000
    174      2      Si          0.00000000     0.00000000     0.00000000
    175      2      Si          0.00000000     0.00000000     0.00000000
    176      2      Si          0.00000000     0.00000000     0.00000000
    177      2      Si          0.00000000     0.00000000     0.00000000
    178      2      Si          0.00000000     0.00000000     0.00000000
    179      2      Si          0.00000000     0.00000000     0.00000000
    180      2      Si          0.00000000     0.00000000     0.00000000
    181      2      Si          0.00000000     0.00000000     0.00000000
    182      2      Si          0.00000000     0.00000000     0.00000000
    183      2      Si          0.00000000     0.00000000     0.00000000
    184      2      Si          0.00000000     0.00000000     0.00000000
    185      2      Si          0.00000000     0.00000000     0.00000000
    186      2      Si          0.00000000     0.00000000     0.00000000
    187      2      Si          0.00000000     0.00000000     0.00000000
    188      2      Si          0.00000000     0.00000000     0.00000000
    189      2      Si          0.00000000     0.00000000     0.00000000
    190      2      Si          0.00000000     0.00000000     0.00000000
    191      2      Si          0.00000000     0.00000000     0.00000000
    192      3      O           0.00000000     0.00000000     0.00000000
    193      3      O           0.00000000     0.00000000     0.00000000
    194      3      O           0.00000000     0.00000000     0.00000000
    195      3      O           0.00000000     0.00000000     0.00000000
    196      3      O           0.00000000     0.00000000     0.00000000
    197      3      O           0.00000000     0.00000000     0.00000000
    198      3      O           0.00000000     0.00000000     0.00000000
    199      3      O           0.00000000     0.00000000     0.00000000
    200      3      O           0.00000000     0.00000000     0.00000000
    201      3      O           0.00000000     0.00000000     0.00000000
    202      3      O           0.00000000     0.00000000     0.00000000
    203      3      O           0.00000000     0.00000000     0.00000000
    204      3      O           0.00000000     0.00000000     0.00000000
    205      3      O           0.00000000     0.00000000     0.00000000
    206      3      O           0.00000000     0.00000000     0.00000000
    207      3      O           0.00000000     0.00000000     0.00000000
    208      3      O           0.00000000     0.00000000     0.00000000
    209      3      O           0.00000000     0.00000000     0.00000000
    210      3      O           0.00000000     0.00000000     0.00000000
    211      3      O           0.00000000     0.00000000     0.00000000
    212      3      O           0.00000000     0.00000000     0.00000000
    213      3      O           0.00000000     0.00000000     0.00000000
    214      3      O           0.00000000     0.00000000     0.00000000
    215      3      O           0.00000000     0.00000000     0.00000000
    216      3      O           0.00000000     0.00000000     0.00000000
    217      3      O           0.00000000     0.00000000     0.00000000
    218      3      O           0.00000000     0.00000000     0.00000000
    219      3      O           0.00000000     0.00000000     0.00000000
    220      3      O           0.00000000     0.00000000     0.00000000
    221      3      O           0.00000000     0.00000000     0.00000000
    222      3      O           0.00000000     0.00000000     0.00000000
    223      3      O           0.00000000     0.00000000     0.00000000
    224      3      O           0.00000000     0.00000000     0.00000000
    225      3      O           0.00000000     0.00000000     0.00000000
    226      3      O           0.00000000     0.00000000     0.00000000
    227      3      O           0.00000000     0.00000000     0.00000000
    228      3      O           0.00000000     0.00000000     0.00000000
    229      3      O           0.00000000     0.00000000     0.00000000
    230      3      O           0.00000000     0.00000000     0.00000000
    231      3      O           0.00000000     0.00000000     0.00000000
    232      3      O           0.00000000     0.00000000     0.00000000
    233      3      O           0.00000000     0.00000000     0.00000000
    234      3      O           0.00000000     0.00000000     0.00000000
    235      3      O           0.00000000     0.00000000     0.00000000
    236      3      O           0.00000000     0.00000000     0.00000000
    237      3      O           0.00000000     0.00000000     0.00000000
    238      3      O           0.00000000     0.00000000     0.00000000
    239      3      O           0.00000000     0.00000000     0.00000000
    240      3      O           0.00000000     0.00000000     0.00000000
    241      3      O           0.00000000     0.00000000     0.00000000
    242      3      O           0.00000000     0.00000000     0.00000000
    243      3      O           0.00000000     0.00000000     0.00000000
    244      3      O           0.00000000     0.00000000     0.00000000
    245      3      O           0.00000000     0.00000000     0.00000000
    246      3      O           0.00000000     0.00000000     0.00000000
    247      3      O           0.00000000     0.00000000     0.00000000
    248      3      O           0.00000000     0.00000000     0.00000000
    249      3      O           0.00000000     0.00000000     0.00000000
    250      3      O           0.00000000     0.00000000     0.00000000
    251      3      O           0.00000000     0.00000000     0.00000000
    252      3      O           0.00000000     0.00000000     0.00000000
    253      3      O           0.00000000     0.00000000     0.00000000
    254      3      O           0.00000000     0.00000000     0.00000000
    255      3      O           0.00000000     0.00000000     0.00000000
    256      3      O           0.00000000     0.00000000     0.00000000
    257      3      O           0.00000000     0.00000000     0.00000000
    258      3      O           0.00000000     0.00000000     0.00000000
    259      3      O           0.00000000     0.00000000     0.00000000
    260      3      O           0.00000000     0.00000000     0.00000000
    261      3      O           0.00000000     0.00000000     0.00000000
    262      3      O           0.00000000     0.00000000     0.00000000
    263      3      O           0.00000000     0.00000000     0.00000000
    264      3      O           0.00000000     0.00000000     0.00000000
    265      3      O           0.00000000     0.00000000     0.00000000
    266      3      O           0.00000000     0.00000000     0.00000000
    267      3      O           0.00000000     0.00000000     0.00000000
    268      3      O           0.00000000     0.00000000     0.00000000
    269      3      O           0.00000000     0.00000000     0.00000000
    270      3      O           0.00000000     0.00000000     0.00000000
    271      3      O           0.00000000     0.00000000     0.00000000
    272      3      O           0.00000000     0.00000000     0.00000000
    273      3      O           0.00000000     0.00000000     0.00000000
    274      3      O           0.00000000     0.00000000     0.00000000
    275      3      O           0.00000000     0.00000000     0.00000000
    276      3      O           0.00000000     0.00000000     0.00000000
    277      3      O           0.00000000     0.00000000     0.00000000
    278      3      O           0.00000000     0.00000000     0.00000000
    279      3      O           0.00000000     0.00000000     0.00000000
    280      3      O           0.00000000     0.00000000     0.00000000
    281      3      O           0.00000000     0.00000000     0.00000000
    282      3      O           0.00000000     0.00000000     0.00000000
    283      3      O           0.00000000     0.00000000     0.00000000
    284      3      O           0.00000000     0.00000000     0.00000000
    285      3      O           0.00000000     0.00000000     0.00000000
    286      3      O           0.00000000     0.00000000     0.00000000
    287      3      O           0.00000000     0.00000000     0.00000000
    288      3      O           0.00000000     0.00000000     0.00000000
    289      3      O           0.00000000     0.00000000     0.00000000
    290      3      O           0.00000000     0.00000000     0.00000000
    291      3      O           0.00000000     0.00000000     0.00000000
    292      3      O           0.00000000     0.00000000     0.00000000
    293      3      O           0.00000000     0.00000000     0.00000000
    294      3      O           0.00000000     0.00000000     0.00000000
    295      3      O           0.00000000     0.00000000     0.00000000
    296      3      O           0.00000000     0.00000000     0.00000000
    297      3      O           0.00000000     0.00000000     0.00000000
    298      3      O           0.00000000     0.00000000     0.00000000
    299      3      O           0.00000000     0.00000000     0.00000000
    300      3      O           0.00000000     0.00000000     0.00000000
    301      3      O           0.00000000     0.00000000     0.00000000
    302      3      O           0.00000000     0.00000000     0.00000000
    303      3      O           0.00000000     0.00000000     0.00000000
    304      3      O           0.00000000     0.00000000     0.00000000
    305      3      O           0.00000000     0.00000000     0.00000000
    306      3      O           0.00000000     0.00000000     0.00000000
    307      3      O           0.00000000     0.00000000     0.00000000
    308      3      O           0.00000000     0.00000000     0.00000000
    309      3      O           0.00000000     0.00000000     0.00000000
    310      3      O           0.00000000     0.00000000     0.00000000
    311      3      O           0.00000000     0.00000000     0.00000000
    312      3      O           0.00000000     0.00000000     0.00000000
    313      3      O           0.00000000     0.00000000     0.00000000
    314      3      O           0.00000000     0.00000000     0.00000000
    315      3      O           0.00000000     0.00000000     0.00000000
    316      3      O           0.00000000     0.00000000     0.00000000
    317      3      O           0.00000000     0.00000000     0.00000000
    318      3      O           0.00000000     0.00000000     0.00000000
    319      3      O           0.00000000     0.00000000     0.00000000
    320      3      O           0.00000000     0.00000000     0.00000000
    321      3      O           0.00000000     0.00000000     0.00000000
    322      3      O           0.00000000     0.00000000     0.00000000
    323      3      O           0.00000000     0.00000000     0.00000000
    324      3      O           0.00000000     0.00000000     0.00000000
    325      3      O           0.00000000     0.00000000     0.00000000
    326      3      O           0.00000000     0.00000000     0.00000000
    327      3      O           0.00000000     0.00000000     0.00000000
    328      3      O           0.00000000     0.00000000     0.00000000
    329      3      O           0.00000000     0.00000000     0.00000000
    330      3      O           0.00000000     0.00000000     0.00000000
    331      3      O           0.00000000     0.00000000     0.00000000
    332      3      O           0.00000000     0.00000000     0.00000000
    333      3      O           0.00000000     0.00000000     0.00000000
    334      3      O           0.00000000     0.00000000     0.00000000
    335      3      O           0.00000000     0.00000000     0.00000000
    336      3      O           0.00000000     0.00000000     0.00000000
    337      3      O           0.00000000     0.00000000     0.00000000
    338      3      O           0.00000000     0.00000000     0.00000000
    339      3      O           0.00000000     0.00000000     0.00000000
    340      3      O           0.00000000     0.00000000     0.00000000
    341      3      O           0.00000000     0.00000000     0.00000000
    342      3      O           0.00000000     0.00000000     0.00000000
    343      3      O           0.00000000     0.00000000     0.00000000
    344      3      O           0.00000000     0.00000000     0.00000000
    345      3      O           0.00000000     0.00000000     0.00000000
    346      3      O           0.00000000     0.00000000     0.00000000
    347      3      O           0.00000000     0.00000000     0.00000000
    348      3      O           0.00000000     0.00000000     0.00000000
    349      3      O           0.00000000     0.00000000     0.00000000
    350      3      O           0.00000000     0.00000000     0.00000000
    351      3      O           0.00000000     0.00000000     0.00000000
    352      3      O           0.00000000     0.00000000     0.00000000
    353      3      O           0.00000000     0.00000000     0.00000000
    354      3      O           0.00000000     0.00000000     0.00000000
    355      3      O           0.00000000     0.00000000     0.00000000
    356      3      O           0.00000000     0.00000000     0.00000000
    357      3      O           0.00000000     0.00000000     0.00000000
    358      3      O           0.00000000     0.00000000     0.00000000
    359      3      O           0.00000000     0.00000000     0.00000000
    360      3      O           0.00000000     0.00000000     0.00000000
    361      3      O           0.00000000     0.00000000     0.00000000
    362      3      O           0.00000000     0.00000000     0.00000000
    363      3      O           0.00000000     0.00000000     0.00000000
    364      3      O           0.00000000     0.00000000     0.00000000
    365      3      O           0.00000000     0.00000000     0.00000000
    366      3      O           0.00000000     0.00000000     0.00000000
    367      3      O           0.00000000     0.00000000     0.00000000
    368      3      O           0.00000000     0.00000000     0.00000000
    369      3      O           0.00000000     0.00000000     0.00000000
[...]
 flops  2010 x   288 x   662        9767474657280       0.0%    100.0%      0.0%
 flops  2020 x   288 x   662        9816069058560       0.0%    100.0%      0.0%
 flops  2010 x   256 x   662       13023299543040       0.0%    100.0%      0.0%
 flops  2020 x   256 x   662       13088092078080       0.0%    100.0%      0.0%
 flops  2010 x   288 x   670       13180680806400       0.0%    100.0%      0.0%
 flops  2020 x   288 x   670       13246256332800       0.0%    100.0%      0.0%
 flops  2010 x   288 x   128       16719758622720       0.0%    100.0%      0.0%
 flops  2020 x   288 x   128       16802941501440       0.0%    100.0%      0.0%
 flops  2010 x   256 x   670       17574241075200       0.0%    100.0%      0.0%
 flops  2020 x   256 x   670       17661675110400       0.0%    100.0%      0.0%
 flops    13 x    13 x   128       22206229314048       0.0%    100.0%      0.0%
 flops  2010 x   256 x   128       22293011496960       0.0%    100.0%      0.0%
 flops  2020 x   256 x   128       22403922001920       0.0%    100.0%      0.0%
 flops    13 x    32 x    13      125251699539200       0.0%    100.0%      0.0%
 flops inhomo. stacks             111810894835968     100.0%      0.0%      0.0%
 flops total                       664.586948E+12      16.8%     83.2%      0.0%
 flops max/rank                     29.588270E+12      16.9%     83.1%      0.0%
 matmuls inhomo. stacks                    325728     100.0%      0.0%      0.0%
 matmuls total                        15951249786       0.0%    100.0%      0.0%
 number of processed stacks              22050437       1.5%     98.5%      0.0%
 average stack size                                     1.0     734.2       0.0
 marketing flops                     1.131395E+15
 -------------------------------------------------------------------------------
 # multiplications                          13091
 max memory usage/rank               1.308496E+09
 # max total images/rank                        3
 # max 3D layers                                1
 # MPI messages exchanged                 5969496
 MPI messages size (bytes):
  total size                        10.714195E+12
  min size                           0.000000E+00
  max size                          11.247360E+06
  average size                       1.794824E+06
 MPI breakdown and total messages size (bytes):
             size <=      128               41340                        0
       128 < size <=     8192                   0                        0
      8192 < size <=    32768                1755                 57507840
     32768 < size <=   131072                 585                 23418720
    131072 < size <=  4194304             5670936            7954164808448
   4194304 < size <= 16777216              254880            2759653728000
  16777216 < size                               0                        0
 -------------------------------------------------------------------------------

 *** WARNING in dbcsr_mm.F:291 :: Using a non-square number of MPI ranks ***
 *** might lead to poor performance. Used ranks: 24 Suggested: 25 49     ***

 -------------------------------------------------------------------------------
 -                                                                             -
 -                      DBCSR MESSAGE PASSING PERFORMANCE                      -
 -                                                                             -
 -------------------------------------------------------------------------------
 ROUTINE             CALLS      AVE VOLUME [Bytes]
 MP_Bcast              139                     12.
 MP_Allreduce        65850                    107.
 MP_Alltoall         61241                 843042.
 MP_ISend           601780                 812490.
 MP_IRecv           592512                 817917.
 -------------------------------------------------------------------------------

 -------------------------------------------------------------------------------
 -                                                                             -
 -                                DBM STATISTICS                               -
 -                                                                             -
 -------------------------------------------------------------------------------
    M  x    N  x    K                                          COUNT     PERCENT
 -------------------------------------------------------------------------------

 -------------------------------------------------------------------------------
 -                                                                             -
 -                                GRID STATISTICS                              -
 -                                                                             -
 -------------------------------------------------------------------------------
 LP    KERNEL             BACKEND                              COUNT     PERCENT
 4     collocate ortho    CPU                              270795906      50.88%
 4     integrate ortho    CPU                              135397953      25.44%
 3     collocate ortho    CPU                               52788768       9.92%
 3     integrate ortho    CPU                               26394384       4.96%
 7     integrate ortho    CPU                               18305062       3.44%
 2     collocate ortho    CPU                               13031234       2.45%
 2     integrate ortho    CPU                                6515617       1.22%
 6     integrate ortho    CPU                                3584487       0.67%
 5     integrate ortho    CPU                                1695188       0.32%
 5     collocate ortho    CPU                                1630068       0.31%
 0     collocate general  CPU                                 999936       0.19%
 3     integrate general  CPU                                 984312       0.18%
 8     integrate ortho    CPU                                 110187       0.02%
 6     collocate ortho    CPU                                  33552       0.01%
 9     integrate ortho    CPU                                   2268       0.00%
 -------------------------------------------------------------------------------

 MEMORY| Estimated peak process memory [MiB]                                1248

 -------------------------------------------------------------------------------
 -                                                                             -
 -                         MESSAGE PASSING PERFORMANCE                         -
 -                                                                             -
 -------------------------------------------------------------------------------

 ROUTINE             CALLS      AVE VOLUME [Bytes]
 MP_Group                5
 MP_Bcast            36354                 233100.
 MP_Allreduce        99880                   1227.
 MP_Sync               763
 MP_Alltoall         16287               33576338.
 MP_SendRecv         70104                 117919.
 MP_ISendRecv        36501                 127093.
 MP_Wait            135403
 MP_comm_split         758
 MP_ISend            88294                 807595.
 MP_IRecv            88294                 807755.
 -------------------------------------------------------------------------------


 -------------------------------------------------------------------------------
 -                                                                             -
 -                           R E F E R E N C E S                               -
 -                                                                             -
 -------------------------------------------------------------------------------
 
 CP2K version 2023.2, the CP2K developers group (2023).
 CP2K is freely available from https://www.cp2k.org/ .

 Kuehne,Thomas D.; Iannuzzi,Marcella; Del Ben,Mauro;
 Rybkin,Vladimir V.; Seewald,Patrick; Stein,Frederick; Laino,Teodoro;
 Khaliullin,Rustam Z.; Schuett,Ole; Schiffmann,Florian; Golze,Dorothea;
 Wilhelm,Jan; Chulkov,Sergey; Bani-Hashemian,Mohammad Hossein;
 Weber,Valery; Borstnik,Urban; Taillefumier,Mathieu;
 Jakobovits,Alice Shoshana; Lazzaro,Alfio; Pabst,Hans; Mueller,Tiziano;
 Schade,Robert; Guidon,Manuel; Andermatt,Samuel; Holmberg,Nico;
 Schenter,Gregory K.; Hehn,Anna; Bussy,Augustin; Belleflamme,Fabian;
 Tabacchi,Gloria; Gloess,Andreas; Lass,Michael; Bethune,Iain;
 Mundy,Christopher J.; Plessl,Christian; Watkins,Matt;
 VandeVondele,Joost; Krack,Matthias; Hutter,Juerg. 
 The Journal of Chemical Physics, 152 (19), (2020). 
 CP2K: An electronic structure and molecular dynamics software package -
 Quickstep: Efficient and accurate electronic structure calculations.
 https://doi.org/10.1063/5.0007045

 Goerigk, Lars; Hansen, Andreas; Bauer, Christoph; Ehrlich, Stephan;
 Najibi, Asim; Grimme, Stefan. , 19 (48), (2017). 
 A look at the density functional theory zoo with the advanced GMTKN55 database
 for general main group thermochemistry, kinetics and noncovalent interactions.
 https://doi.org/10.1039/C7CP04913G

 Schuett, Ole; Messmer, Peter; Hutter, Juerg; VandeVondele, Joost. 
 Electronic Structure Calculations on Graphics Processing Units, John
 Wiley & Sons, Ltd, 173-190 (2016). 
 GPU-Accelerated Sparse Matrix-Matrix Multiplication for
 Linear Scaling Density Functional Theory.
 https://doi.org/10.1002/9781118670712.ch8

 Heinecke, A; Henry, G; Hutchinson, M; Pabst, H. 
 Proceedings of Intl. Supercomputing Conference, 981-991 (2016). 
 LIBXSMM: Accelerating Small Matrix Multiplications
 by Runtime Code Generation.
 https://doi.org/10.1109/SC.2016.83

 Borstnik, U; VandeVondele, J; Weber, V; Hutter, J. 
 PARALLEL COMPUTING, 40 (5-6), 47-58 (2014). 
 Sparse matrix multiplication: The distributed block-compressed sparse
 row library.
 https://doi.org/10.1016/j.parco.2014.03.012

 Hutter, J; Iannuzzi, M; Schiffmann, F; VandeVondele, J. 
 WIREs Comput Mol Sci., 4 (1), 15-25 (2014). 
 CP2K: atomistic simulations of condensed matter systems.
 https://doi.org/10.1002/wcms.1159

 Grimme, S; Ehrlich, S; Goerigk, L. 
 JOURNAL OF COMPUTATIONAL CHEMISTRY, 32, 1456 (2011). 
 Effect of the damping function in dispersion corrected density functional theory.
 https://doi.org/10.1002/jcc.21759

 Grimme, S; Antony, J; Ehrlich, S; Krieg, H. 
 JOURNAL OF CHEMICAL PHYSICS, 132 (15), 154104 (2010). 
 A consistent and accurate ab initio parametrization of density
 functional dispersion correction (DFT-D) for the 94 elements H-Pu.
 https://doi.org/10.1063/1.3382344

 VandeVondele, J; Hutter, J. 
 JOURNAL OF CHEMICAL PHYSICS, 127 (11), 114105 (2007). 
 Gaussian basis sets for accurate calculations on molecular systems in
 gas and condensed phases.
 https://doi.org/10.1063/1.2770708

 Kuhne, TD; Krack, M; Mohamed, FR; Parrinello, M. 
 PHYSICAL REVIEW LETTERS, 98 (6), 066401 (2007). 
 Efficient and accurate Car-Parrinello-like approach to
 Born-Oppenheimer molecular dynamics.
 https://doi.org/10.1103/PhysRevLett.98.066401

 Krack, M. 
 THEORETICAL CHEMISTRY ACCOUNTS, 114 (1-3), 145-152 (2005). 
 Pseudopotentials for H to Kr optimized for gradient-corrected
 exchange-correlation functionals.
 https://doi.org/10.1007/s00214-005-0655-y

 VandeVondele, J; Krack, M; Mohamed, F; Parrinello, M; Chassaing, T;
 Hutter, J. COMPUTER PHYSICS COMMUNICATIONS, 167 (2), 103-128 (2005). 
 QUICKSTEP: Fast and accurate density functional calculations using a
 mixed Gaussian and plane waves approach.
 https://doi.org/10.1016/j.cpc.2004.12.014

 Frigo, M; Johnson, SG. 
 PROCEEDINGS OF THE IEEE, 93 (2), 216-231 (2005). 
 The design and implementation of FFTW3.
 https://doi.org/10.1109/JPROC.2004.840301

 Kolafa, J. 
 JOURNAL OF COMPUTATIONAL CHEMISTRY, 25 (3), 335-342 (2004). 
 Time-reversible always stable predictor-corrector method for
 molecular dynamics of polarizable molecules.
 https://doi.org/10.1002/jcc.10385

 VandeVondele, J; Hutter, J. 
 JOURNAL OF CHEMICAL PHYSICS, 118 (10), 4365-4369 (2003). 
 An efficient orbital transformation method for electronic structure
 calculations.
 https://doi.org/10.1063/1.1543154

 Hartwigsen, C; Goedecker, S; Hutter, J. 
 PHYSICAL REVIEW B, 58 (7), 3641-3662 (1998). 
 Relativistic separable dual-space Gaussian pseudopotentials from H to Rn.
 https://doi.org/10.1103/PhysRevB.58.3641

 Lippert, G; Hutter, J; Parrinello, M. 
 MOLECULAR PHYSICS, 92 (3), 477-487 (1997). 
 A hybrid Gaussian and plane wave density functional scheme.
 https://doi.org/10.1080/002689797170220

 Perdew, JP; Burke, K; Ernzerhof, M. 
 PHYSICAL REVIEW LETTERS, 77 (18), 3865-3868 (1996). 
 Generalized gradient approximation made simple.
 https://doi.org/10.1103/PhysRevLett.77.3865

 Goedecker, S; Teter, M; Hutter, J. 
 PHYSICAL REVIEW B, 54 (3), 1703-1710 (1996). 
 Separable dual-space Gaussian pseudopotentials.
 https://doi.org/10.1103/PhysRevB.54.1703


 -------------------------------------------------------------------------------
 -                                                                             -
 -                                T I M I N G                                  -
 -                                                                             -
 -------------------------------------------------------------------------------
 SUBROUTINE                       CALLS  ASD         SELF TIME        TOTAL TIME
                                MAXIMUM       AVERAGE  MAXIMUM  AVERAGE  MAXIMUM
 CP2K                                 1  1.0    0.023    0.025 5227.442 5227.457
 cp_geo_opt                           1  2.0    0.004    0.004 5226.171 5226.186
 geoopt_bfgs                          1  3.0    0.136    0.152 5226.167 5226.182
 cp_eval_at                          64  4.0    0.012    0.083 5201.175 5201.247
 qs_forces                           63  5.0    0.024    0.026 5160.967 5160.981
 qs_energies                         64  6.0    0.005    0.006 4875.340 4875.486
 scf_env_do_scf                      64  7.0    0.003    0.008 4638.260 4638.324
 scf_env_do_scf_inner_loop          868  8.0    0.027    0.245 3351.608 3352.800
 rebuild_ks_matrix                  931  9.8    0.005    0.005 1719.916 1721.631
 qs_ks_build_kohn_sham_matrix       931 10.8    0.134    0.151 1719.911 1721.626
 qs_ks_update_qs_env                933  9.0    0.007    0.008 1466.791 1468.293
 dbcsr_multiply_generic           13091 13.7    0.894    0.978 1313.330 1320.180
 init_scf_loop                       65  8.0    0.003    0.003 1284.019 1284.046
 qs_scf_new_mos                     868  9.0    0.006    0.008 1218.871 1221.727
 qs_scf_loop_do_ot                  868 10.0    0.006    0.008 1218.865 1221.722
 ot_scf_mini                        868 11.0    0.033    0.039 1131.320 1133.061
 prepare_preconditioner              65  9.0    0.001    0.001 1104.901 1105.389
 pw_transfer                      15601 13.7    0.785    0.866 1062.249 1072.189
 make_preconditioner                 65 10.0    0.002    0.002 1063.277 1063.496
 fft_wrap_pw1pw2                  13739 14.8    0.137    0.153 1049.101 1059.063
 multiply_cannon                  13091 14.7    1.238    1.560 1033.662 1053.553
 make_full_all                       65 11.0    0.152    0.176 1023.665 1023.705
 fft_wrap_pw1pw2_180               7895 16.4  175.569  179.847 1008.501 1013.995
 multiply_cannon_loop             13091 15.7    2.113    2.330  988.530 1013.044
 qs_vxc_create                      931 11.8    0.022    0.024  943.574  946.466
 qs_rho_update_rho_low              932  9.1    0.005    0.005  878.385  879.210
 calculate_rho_elec                 932 10.1    2.940    3.101  878.380  879.206
 cp_fm_syevd                        758 13.4    0.009    0.012  798.278  799.092
 cp_fm_redistribute_end             758 14.4  399.801  795.208  400.248  795.220
 cp_fm_syevd_base                   758 14.4  392.977  787.708  392.977  787.708
 multiply_cannon_multrec         157092 16.7  695.394  749.251  695.587  749.446
 fft3d_ps                         13739 16.8  322.262  332.234  702.781  708.150
 xc_vxc_pw_create                   529 12.6   17.128   18.106  681.321  684.216
 xc_pw_derive                      4380 14.7    0.085    0.100  639.092  646.193
 ot_mini                            868 12.0    0.008    0.010  639.967  642.503
 xc_rho_set_and_dset_create         931 13.8    8.624    9.970  601.340  605.915
 sum_up_and_integrate               529 11.6    5.086    5.134  557.351  557.602
 integrate_v_rspace                 529 12.6    0.020    0.023  552.264  552.470
 grid_collocate_task_list           932 11.1  486.796  517.085  486.796  517.085
 grid_integrate_task_list           529 13.6  392.612  408.899  392.612  408.899
 density_rs2pw                      932 11.1    0.059    0.064  372.071  407.336
 mp_waitall_1                    780205 17.8  350.868  404.736  350.868  404.736
 apply_preconditioner_dbcsr         531 14.0    0.002    0.002  377.844  379.418
 apply_all                          531 15.0    0.449    0.499  377.842  379.416
 ot_new_cg_direction                466 13.0    0.009    0.011  337.867  337.868
 multiply_cannon_metrocomm3      157092 16.7    0.580    0.702  281.333  334.687
 xc_pw_divergence                   529 13.6    0.033    0.038  311.557  318.924
 qs_ot_get_derivative               466 13.0    0.006    0.008  298.808  300.927
 xc_exc_calc                        402 13.0    1.241    1.254  262.230  262.253
 x_to_yz                           6899 18.5  176.762  180.042  243.518  256.901
 qs_ks_update_qs_env_forces          63  6.0    0.000    0.001  256.029  256.215
 make_m2s                         26182 14.7    0.753    0.861  214.144  217.015
 qs_ot_get_p                        933 11.9    0.007    0.011  201.966  206.920
 rs_pw_transfer                    7432 12.9    0.084    0.089  152.701  189.737
 xc_functional_eval                 931 14.8    0.009    0.011  174.271  176.765
 pbe_lda_eval                       931 15.8  174.261  176.754  174.261  176.754
 init_scf_run                        64  7.0    0.002    0.004  174.667  174.689
 scf_env_initial_rho_setup           64  8.0    0.001    0.002  174.665  174.687
 wfi_extrapolate                     64  9.0    0.009    0.011  171.764  171.764
 parallel_gemm_fm                  1063 10.2    0.004    0.004  166.067  166.687
 parallel_gemm_fm_gemm             1063 11.2    0.004    0.005  166.063  166.684
 cp_fm_gemm                        1063 12.2  166.059  166.680  166.059  166.680
 make_images                      26182 15.7    3.364    3.532  157.055  160.130
 qs_ot_get_orbitals                 868 12.0    0.006    0.008  143.424  144.974
 yz_to_x                           6840 17.1   89.424   90.816  136.721  144.879
 potential_pw2rs                    529 13.6    0.176    0.242  138.679  138.978
 mp_alltoall_z22v                 13739 18.8  114.054  138.862  114.054  138.862
 cp_dbcsr_syevd                     630 13.5    0.047    0.072  135.482  136.081
 qs_ot_p2m_diag                     500 13.0    2.226    2.452  124.836  125.327
 cp_fm_cholesky_reduce               65 12.0  111.581  111.607  111.581  111.607
 qs_ot_get_derivative_diag          249 14.0    0.008    0.012  105.693  107.042
 rs_pw_transfer_RS2PW_180           996 12.9   19.443   20.868   67.056  104.753
 -------------------------------------------------------------------------------

 The number of warnings for this run is : 2
 
 -------------------------------------------------------------------------------
  **** **** ******  **  PROGRAM ENDED AT                 2025-01-28 15:51:42.073
 ***** ** ***  *** **   PROGRAM RAN ON                         c0219.ten.osc.edu
 **    ****   ******    PROGRAM RAN BY                                   xiutinc
 ***** **    ** ** **   PROGRAM PROCESS ID                                271323
  **** **  *******  **  PROGRAM STOPPED IN /fs/scratch/PAS2536/xiutinc/386231.ad
                                           l02_01_02_propanol
