 DBCSR| CPU Multiplication driver                                           XSMM
 DBCSR| Multrec recursion limit                                              512
 DBCSR| Multiplication stack size                                           1000
 DBCSR| Maximum elements for images                                    UNLIMITED
 DBCSR| Multiplicative factor virtual images                                   1
 DBCSR| Use multiplication densification                                       T
 DBCSR| Multiplication size stacks                                             3
 DBCSR| Number of 3D layers                                               SINGLE
 DBCSR| Use MPI memory allocation                                              T
 DBCSR| Use RMA algorithm                                                      F
 DBCSR| Use Communication thread                                               T
 DBCSR| Communication thread load                                             87


  **** **** ******  **  PROGRAM STARTED AT               2022-07-05 19:06:18.640
 ***** ** ***  *** **   PROGRAM STARTED ON         node1598.palmetto.clemson.edu
 **    ****   ******    PROGRAM STARTED BY                               xiutinc
 ***** **    ** ** **   PROGRAM PROCESS ID                               4172081
  **** **  *******  **  PROGRAM STARTED IN  /scratch1/xiutinc/CP2K-5305509.pbs02

 CP2K| version string:                                          CP2K version 7.1
 CP2K| source code revision number:                                  git:e635599
 CP2K| cp2kflags: libint fftw3 libxc parallel mpi3 scalapack xsmm               
 CP2K| is freely available from                            https://www.cp2k.org/
 CP2K| Program compiled at                          Wed Aug 12 10:01:37 EDT 2020
 CP2K| Program compiled on                           util02.palmetto.clemson.edu
 CP2K| Program compiled for                          linux-centos8-ivybridge-gcc
 CP2K| Data directory path    /software/spackages/linux-centos8-ivybridge/gcc-8.
 CP2K| Input file name                                             intE09_aq.inp

 GLOBAL| Force Environment number                                              1
 GLOBAL| Basis set file name                                          BASIS_file
 GLOBAL| Potential file name                                     POTENTIALS_file
 GLOBAL| MM Potential file name                                     MM_POTENTIAL
 GLOBAL| Coordinate file name                                    ./intE09_aq.xyz
 GLOBAL| Method name                                                        CP2K
 GLOBAL| Project name                                                  intE09_aq
 GLOBAL| Preferred FFT library                                             FFTW3
 GLOBAL| Preferred diagonalization lib.                                       SL
 GLOBAL| Run type                                                        GEO_OPT
 GLOBAL| All-to-all communication in single precision                          F
 GLOBAL| FFTs using library dependent lengths                                  F
 GLOBAL| Global print level                                                  LOW
 GLOBAL| MPI I/O enabled                                                       T
 GLOBAL| Total number of message passing processes                            24
 GLOBAL| Number of threads for this process                                    1
 GLOBAL| This output is from process                                           0
 GLOBAL| CPU model name                Intel(R) Xeon(R) CPU E5-2680 v3 @ 2.50GHz
 GLOBAL| CPUID                                                              1002
 GLOBAL| Compiled for CPUID                                                 1001

 MEMORY| system memory details [Kb]
 MEMORY|                        rank 0           min           max       average
 MEMORY| MemTotal            131661896     131661896     131661896     131661896
 MEMORY| MemFree             121745052     121698488     121745052     121721855
 MEMORY| Buffers                  6272          6272          6272          6272
 MEMORY| Cached                3728668       3728668       3728668       3728668
 MEMORY| Slab                  1880072       1880072       1880072       1880072
 MEMORY| SReclaimable          1103004       1103004       1103004       1103004
 MEMORY| MemLikelyFree       126582996     126536432     126582996     126559799


 *******************************************************************************
 *******************************************************************************
 **                                                                           **
 **     #####                         ##              ##                      **
 **    ##   ##            ##          ##              ##                      **
 **   ##     ##                       ##            ######                    **
 **   ##     ##  ##   ##  ##   #####  ##  ##   ####   ##    #####    #####    **
 **   ##     ##  ##   ##  ##  ##      ## ##   ##      ##   ##   ##  ##   ##   **
 **   ##  ## ##  ##   ##  ##  ##      ####     ###    ##   ######   ######    **
 **    ##  ###   ##   ##  ##  ##      ## ##      ##   ##   ##       ##        **
 **     #######   #####   ##   #####  ##  ##  ####    ##    #####   ##        **
 **           ##                                                    ##        **
 **                                                                           **
 **                                                ... make the atoms dance   **
 **                                                                           **
 **            Copyright (C) by CP2K developers group (2000 - 2019)           **
 **                                                                           **
 *******************************************************************************


 TOTAL NUMBERS AND MAXIMUM NUMBERS

  Total number of            - Atomic kinds:                                   5
                             - Atoms:                                        660
                             - Shell sets:                                   660
                             - Shells:                                      3187
                             - Primitive Cartesian functions:               3111
                             - Cartesian basis functions:                   8735
                             - Spherical basis functions:                   8129

  Maximum angular momentum of- Orbital basis functions:                        3
                             - Local part of the GTH pseudopotential:          2
                             - Non-local part of the GTH pseudopotential:      3


 SCF PARAMETERS         Density guess:                                   RESTART
                        --------------------------------------------------------
                        max_scf:                                             500
                        max_scf_history:                                       0
                        max_diis:                                              4
                        --------------------------------------------------------
                        eps_scf:                                        1.00E-06
                        eps_scf_history:                                0.00E+00
                        eps_diis:                                       1.00E-01
                        eps_eigval:                                     1.00E-05
                        --------------------------------------------------------
                        level_shift [a.u.]:                                 0.00
                        --------------------------------------------------------
                        Outer loop SCF in use 
                        No variables optimised in outer loop
                        eps_scf                                         1.00E-06
                        max_scf                                               50
                        No outer loop optimization
                        step_size                                       5.00E-01

 BFGS| Use rational function optimization for step estimation:                NO
 BFGS| Use model Hessian for initial guess:                                  YES
 BFGS| Restart Hessian:                                                       NO
 BFGS| Trust radius:                                                       0.472

 *******************************************************************************
 ***                     STARTING GEOMETRY OPTIMIZATION                      ***
 ***                                   BFGS                                  ***
 *******************************************************************************

 Number of electrons:                                                       3294
 Number of occupied orbitals:                                               1647
 Number of molecular orbitals:                                              1647

 Number of orbital functions:                                               8129
 Number of independent orbital functions:                                   8129

 Extrapolation method: initial_guess

 *** WARNING in qs_initial_guess.F:280 :: User requested to restart the   ***
 *** wavefunction from the file named: intE09_aq-RESTART.wfn. This file   ***
 *** does not exist. Please check the existence of the file or change     ***
 *** properly the value of the keyword WFN_RESTART_FILE_NAME. Calculation ***
 *** continues using ATOMIC GUESS.                                        ***



 SCF WAVEFUNCTION OPTIMIZATION

  ----------------------------------- OT ---------------------------------------
  Minimizer      : CG                  : conjugate gradient
  Preconditioner : FULL_ALL            : diagonalization, state selective
  Precond_solver : DEFAULT
  Line search    : 2PNT                : 2 energies, one gradient
  stepsize       :    0.15000000                  energy_gap     :    0.00100000
  eps_taylor     :   0.10000E-15                  max_taylor     :             4
  ----------------------------------- OT ---------------------------------------

  Step     Update method      Time    Convergence         Total energy    Change
  ------------------------------------------------------------------------------
     1 OT CG       0.15E+00   38.0     0.01650157     -7218.8665720716 -7.22E+03
     2 OT LS       0.60E-01    4.2                    -7084.7534908360
     3 OT CG       0.60E-01   11.0     0.07824302     -7116.8725785556  1.02E+02
     4 OT LS       0.27E-01    4.2                    -6549.8200006693
     5 OT CG       0.27E-01   10.7     0.13020121     -6727.1805917171  3.90E+02
     6 OT LS       0.15E-01    4.2                    -6879.3124173715
     7 OT CG       0.15E-01   10.7     0.06894578     -7027.9903884509 -3.01E+02
     8 OT LS       0.85E-02    4.2                    -7154.6219528294
     9 OT CG       0.85E-02   10.7     0.01724618     -7193.5010526955 -1.66E+02
    10 OT LS       0.20E-01    4.2                    -7215.8542815181
    11 OT CG       0.20E-01   10.7     0.01755295     -7223.3587669801 -2.99E+01
    12 OT LS       0.26E-01    4.2                    -7265.6891813880
    13 OT CG       0.26E-01   10.7     0.01370848     -7270.7686831247 -4.74E+01
    14 OT LS       0.16E-01    4.2                    -7281.6619434595
    15 OT CG       0.16E-01   10.7     0.01152107     -7288.7633787587 -1.80E+01
    16 OT LS       0.43E-01    4.2                    -7310.6324406085
    17 OT CG       0.43E-01   10.7     0.01747313     -7315.8360168622 -2.71E+01
    18 OT LS       0.24E-02    4.2                    -6850.3042149895
    19 OT CG       0.24E-02   11.0     0.01845242     -7318.4127099877 -2.58E+00
    20 OT LS       0.85E-02    4.2                    -7328.0351315464
    21 OT CG       0.85E-02   10.7     0.00642701     -7339.2406879010 -2.08E+01
    22 OT LS       0.34E-01    4.2                    -7343.5447295668
    23 OT CG       0.34E-01   10.7     0.00553981     -7350.7557017444 -1.15E+01
    24 OT LS       0.41E-01    4.2                    -7360.2568516767
    25 OT CG       0.41E-01   10.8     0.00665840     -7361.0456482356 -1.03E+01
    26 OT LS       0.28E-01    5.7                    -7368.6850160660
    27 OT CG       0.28E-01   10.7     0.00505203     -7372.4290625043 -1.14E+01
    28 OT LS       0.39E-01    4.2                    -7378.5272012679
    29 OT CG       0.39E-01   10.7     0.00489911     -7379.0069292458 -6.58E+00
    30 OT LS       0.27E-01    4.2                    -7382.3937674481
    31 OT CG       0.27E-01   10.7     0.00385581     -7382.9578079341 -3.95E+00
    32 OT LS       0.74E-01    4.2                    -7387.3927648828
    33 OT CG       0.74E-01   10.7     0.00537375     -7388.1890991231 -5.23E+00
    34 OT LS       0.49E-02    4.2                    -7346.0265960802
    35 OT CG       0.49E-02   11.0     0.00568194     -7388.4476497617 -2.59E-01
    36 OT LS       0.16E-01    4.2                    -7390.2490154077
    37 OT CG       0.16E-01   10.7     0.00215010     -7392.0546199662 -3.61E+00
    38 OT LS       0.63E-01    4.2                    -7392.9758819076
    39 OT CG       0.63E-01   15.5     0.00188962     -7394.6205814753 -2.57E+00
    40 OT LS       0.67E-01    7.6                    -7396.5139536173
    41 OT CG       0.67E-01   10.7     0.00251200     -7396.5398227089 -1.92E+00
    42 OT LS       0.60E-01    4.2                    -7399.2891932069
    43 OT CG       0.60E-01   10.7     0.00273700     -7399.3937556371 -2.85E+00
    44 OT LS       0.70E-01    4.2                    -7402.5516285779
    45 OT CG       0.70E-01   10.7     0.00240685     -7402.6017302116 -3.21E+00
    46 OT LS       0.97E-01    4.2                    -7406.0522778346
    47 OT CG       0.97E-01   10.7     0.00217042     -7406.4827022108 -3.88E+00
    48 OT LS       0.45E-01    4.2                    -7406.0037205644
    49 OT CG       0.45E-01   10.7     0.00224812     -7408.1988692423 -1.72E+00
    50 OT LS       0.62E-01    4.2                    -7410.2597325446
    51 OT CG       0.62E-01   10.8     0.00209364     -7410.4744179859 -2.28E+00
    52 OT LS       0.60E-01    4.2                    -7412.3215174880
    53 OT CG       0.60E-01   10.7     0.00180492     -7412.3179374153 -1.84E+00
    54 OT LS       0.66E-01    4.2                    -7413.8082336933
    55 OT CG       0.66E-01   10.7     0.00240601     -7413.8027945228 -1.48E+00
    56 OT LS       0.45E-01    4.2                    -7415.0509440976
    57 OT CG       0.45E-01   10.7     0.00250295     -7415.3966842624 -1.59E+00
    58 OT LS       0.38E-01    4.2                    -7416.9518601886
    59 OT CG       0.38E-01   10.7     0.00181635     -7416.9585478494 -1.56E+00
    60 OT LS       0.89E-01    4.2                    -7418.3535009037
    61 OT CG       0.89E-01   10.7     0.00246204     -7418.8296873509 -1.87E+00
    62 OT LS       0.41E-01    4.2                    -7418.4089408091
    63 OT CG       0.41E-01   10.7     0.00247280     -7420.1803550053 -1.35E+00
    64 OT LS       0.36E-01    4.2                    -7421.6505420773
    65 OT CG       0.36E-01   10.7     0.00145944     -7421.6526695151 -1.47E+00
    66 OT LS       0.82E-01    4.2                    -7422.4970195962
    67 OT CG       0.82E-01   10.9     0.00129292     -7422.8031224801 -1.15E+00
    68 OT LS       0.79E-01    4.2                    -7423.5564872167
    69 OT CG       0.79E-01   10.7     0.00141819     -7423.5565415412 -7.53E-01
    70 OT LS       0.86E-01    4.2                    -7424.7178908597
    71 OT CG       0.86E-01   10.7     0.00142805     -7424.7349150821 -1.18E+00
    72 OT LS       0.88E-01    4.2                    -7426.0062272274
    73 OT CG       0.88E-01   10.7     0.00154884     -7426.0037584125 -1.27E+00
    74 OT LS       0.86E-01    4.2                    -7427.2901417090
    75 OT CG       0.86E-01   10.7     0.00182795     -7427.2909126088 -1.29E+00
    76 OT LS       0.71E-01    4.2                    -7428.8074921767
    77 OT CG       0.71E-01   10.7     0.00158752     -7428.8429139197 -1.55E+00
    78 OT LS       0.81E-01    4.2                    -7430.2404723249
    79 OT CG       0.81E-01   10.7     0.00144288     -7430.2459419215 -1.40E+00
    80 OT LS       0.76E-01    4.2                    -7431.2209263966
    81 OT CG       0.76E-01   10.7     0.00149352     -7431.2227687744 -9.77E-01
    82 OT LS       0.70E-01    4.2                    -7432.2716270504
    83 OT CG       0.70E-01   10.8     0.00116898     -7432.2712834907 -1.05E+00
    84 OT LS       0.91E-01    4.2                    -7433.0926917045
    85 OT CG       0.91E-01   10.7     0.00119416     -7433.1235673716 -8.52E-01
    86 OT LS       0.74E-01    4.2                    -7433.7433875123
    87 OT CG       0.74E-01   10.7     0.00131611     -7433.7789375401 -6.55E-01
    88 OT LS       0.72E-01    4.2                    -7434.6182257781
    89 OT CG       0.72E-01   10.7     0.00109486     -7434.6169718994 -8.38E-01
    90 OT LS       0.95E-01    4.2                    -7435.3702916481
    91 OT CG       0.95E-01   10.7     0.00111801     -7435.4055927640 -7.89E-01
    92 OT LS       0.75E-01    4.2                    -7435.9552306989
    93 OT CG       0.75E-01   10.7     0.00122147     -7436.0035896728 -5.98E-01
    94 OT LS       0.80E-01    4.2                    -7436.7952527064
    95 OT CG       0.80E-01   10.7     0.00107134     -7436.8013799670 -7.98E-01
    96 OT LS       0.82E-01    4.2                    -7437.4525508772
    97 OT CG       0.82E-01   10.7     0.00102368     -7437.4525514837 -6.51E-01
    98 OT LS       0.80E-01    4.2                    -7438.0066017391
    99 OT CG       0.80E-01   10.9     0.00105342     -7438.0074263339 -5.55E-01
   100 OT LS       0.80E-01    4.2                    -7438.5881269680
   101 OT CG       0.80E-01   10.7     0.00105796     -7438.5880974035 -5.81E-01
   102 OT LS       0.74E-01    4.2                    -7439.1501507172
   103 OT CG       0.74E-01   10.7     0.00088027     -7439.1514196822 -5.63E-01
   104 OT LS       0.96E-01    4.2                    -7439.6341385584
   105 OT CG       0.96E-01   12.3     0.00094146     -7439.6554778233 -5.04E-01
   106 OT LS       0.73E-01    4.2                    -7440.0382983491
   107 OT CG       0.73E-01   10.7     0.00095257     -7440.0821548713 -4.27E-01
   108 OT LS       0.82E-01    4.2                    -7440.5734642820
   109 OT CG       0.82E-01   10.7     0.00086972     -7440.5806388575 -4.98E-01
   110 OT LS       0.80E-01    4.2                    -7440.9916954910
   111 OT CG       0.80E-01   10.7     0.00080584     -7440.9918710766 -4.11E-01
   112 OT LS       0.90E-01    4.2                    -7441.3789636537
   113 OT CG       0.90E-01   10.7     0.00082979     -7441.3827318854 -3.91E-01
   114 OT LS       0.82E-01    4.2                    -7441.7537372987
   115 OT CG       0.82E-01   10.9     0.00086516     -7441.7571195174 -3.74E-01
   116 OT LS       0.79E-01    4.2                    -7442.1500792627
   117 OT CG       0.79E-01   12.3     0.00078529     -7442.1506428924 -3.94E-01
   118 OT LS       0.84E-01    6.3                    -7442.4974011969
   119 OT CG       0.84E-01   14.8     0.00075970     -7442.4987157955 -3.48E-01
   120 OT LS       0.85E-01    4.2                    -7442.8259391934
   121 OT CG       0.85E-01   10.7     0.00074503     -7442.8259398380 -3.27E-01
   122 OT LS       0.85E-01    4.2                    -7443.1404541384
   123 OT CG       0.85E-01   10.7     0.00074129     -7443.1404593347 -3.15E-01
   124 OT LS       0.84E-01    4.2                    -7443.4493816641
   125 OT CG       0.84E-01   10.7     0.00070387     -7443.4494132033 -3.09E-01
   126 OT LS       0.86E-01    4.2                    -7443.7339258184
   127 OT CG       0.86E-01   10.7     0.00070146     -7443.7339937957 -2.85E-01
   128 OT LS       0.81E-01    4.2                    -7443.9977945142
   129 OT CG       0.81E-01   10.7     0.00068362     -7443.9989158602 -2.65E-01
   130 OT LS       0.83E-01    4.2                    -7444.2584051629
   131 OT CG       0.83E-01   10.8     0.00066408     -7444.2587073101 -2.60E-01
   132 OT LS       0.84E-01    4.2                    -7444.5079345677
   133 OT CG       0.84E-01   10.7     0.00063089     -7444.5079915727 -2.49E-01
   134 OT LS       0.87E-01    4.2                    -7444.7420928021
   135 OT CG       0.87E-01   10.7     0.00062991     -7444.7423919044 -2.34E-01
   136 OT LS       0.84E-01    4.2                    -7444.9647868849
   137 OT CG       0.84E-01   10.7     0.00061754     -7444.9653062387 -2.23E-01
   138 OT LS       0.85E-01    4.2                    -7445.1804214810
   139 OT CG       0.85E-01   10.7     0.00060798     -7445.1804329858 -2.15E-01
   140 OT LS       0.83E-01    4.2                    -7445.3853723433
   141 OT CG       0.83E-01   10.7     0.00057899     -7445.3854233094 -2.05E-01
   142 OT LS       0.85E-01    4.2                    -7445.5758581084
   143 OT CG       0.85E-01   10.7     0.00056471     -7445.5759399531 -1.91E-01
   144 OT LS       0.85E-01    4.2                    -7445.7589375624
   145 OT CG       0.85E-01   10.7     0.00055826     -7445.7589459338 -1.83E-01
   146 OT LS       0.85E-01    4.2                    -7445.9347710294
   147 OT CG       0.85E-01   10.9     0.00055280     -7445.9348069837 -1.76E-01
   148 OT LS       0.84E-01    4.2                    -7446.1065020222
   149 OT CG       0.84E-01   10.7     0.00053111     -7446.1065029308 -1.72E-01
   150 OT LS       0.86E-01    4.2                    -7446.2680962943
   151 OT CG       0.86E-01   10.7     0.00050902     -7446.2681493721 -1.62E-01
   152 OT LS       0.88E-01    4.2                    -7446.4216439363
   153 OT CG       0.88E-01   10.7     0.00050353     -7446.4217922160 -1.54E-01
   154 OT LS       0.86E-01    4.2                    -7446.5683893895
   155 OT CG       0.86E-01   10.7     0.00050460     -7446.5684795952 -1.47E-01
   156 OT LS       0.84E-01    4.2                    -7446.7115206473
   157 OT CG       0.84E-01   10.7     0.00049131     -7446.7116277437 -1.43E-01
   158 OT LS       0.84E-01    4.2                    -7446.8465444993
   159 OT CG       0.84E-01   10.7     0.00047206     -7446.8465471325 -1.35E-01
   160 OT LS       0.85E-01    4.2                    -7446.9742247510
   161 OT CG       0.85E-01   10.7     0.00045576     -7446.9742949070 -1.28E-01
   162 OT LS       0.87E-01    4.2                    -7447.0956536925
   163 OT CG       0.87E-01   10.9     0.00045131     -7447.0956925661 -1.21E-01
   164 OT LS       0.88E-01    4.2                    -7447.2152785425
   165 OT CG       0.88E-01   10.7     0.00044661     -7447.2152808603 -1.20E-01
   166 OT LS       0.86E-01    4.2                    -7447.3294585383
   167 OT CG       0.86E-01   10.7     0.00043529     -7447.3295223559 -1.14E-01
   168 OT LS       0.86E-01    4.2                    -7447.4386108355
   169 OT CG       0.86E-01   10.7     0.00042125     -7447.4386134712 -1.09E-01
   170 OT LS       0.87E-01    4.2                    -7447.5415281592
   171 OT CG       0.87E-01   10.7     0.00041383     -7447.5415319526 -1.03E-01
   172 OT LS       0.87E-01    4.2                    -7447.6417729445
   173 OT CG       0.87E-01   10.7     0.00041156     -7447.6417803497 -1.00E-01
   174 OT LS       0.86E-01    4.2                    -7447.7390067875
   175 OT CG       0.86E-01   10.7     0.00040383     -7447.7390414237 -9.73E-02
   176 OT LS       0.86E-01    4.2                    -7447.8331245192
   177 OT CG       0.86E-01   10.7     0.00039274     -7447.8331274098 -9.41E-02
   178 OT LS       0.87E-01    4.2                    -7447.9232188231
   179 OT CG       0.87E-01   10.9     0.00038090     -7447.9232320730 -9.01E-02
   180 OT LS       0.89E-01    4.2                    -7448.0096761126
   181 OT CG       0.89E-01   10.7     0.00037592     -7448.0097080013 -8.65E-02
   182 OT LS       0.89E-01    4.2                    -7448.0937623079
   183 OT CG       0.89E-01   13.1     0.00037281     -7448.0937627077 -8.41E-02
   184 OT LS       0.87E-01    4.2                    -7448.1743146059
   185 OT CG       0.87E-01   10.7     0.00036652     -7448.1743650992 -8.06E-02
   186 OT LS       0.86E-01    4.2                    -7448.2517850376
   187 OT CG       0.86E-01   10.7     0.00035664     -7448.2517875389 -7.74E-02
   188 OT LS       0.87E-01    4.2                    -7448.3257265457
   189 OT CG       0.87E-01   10.7     0.00034885     -7448.3257315647 -7.39E-02
   190 OT LS       0.88E-01    4.2                    -7448.3973107671
   191 OT CG       0.88E-01   10.7     0.00034488     -7448.3973194519 -7.16E-02
   192 OT LS       0.88E-01    4.2                    -7448.4670290206
   193 OT CG       0.88E-01   10.7     0.00033975     -7448.4670299012 -6.97E-02
   194 OT LS       0.88E-01    4.2                    -7448.5348037241
   195 OT CG       0.88E-01   10.8     0.00033284     -7448.5348041945 -6.78E-02
   196 OT LS       0.88E-01    4.2                    -7448.5997854154
   197 OT CG       0.88E-01   18.3     0.00032491     -7448.5997853830 -6.50E-02
   198 OT LS       0.88E-01    4.7                    -7448.6621998883
   199 OT CG       0.88E-01   10.7     0.00032030     -7448.6622031595 -6.24E-02
   200 OT LS       0.87E-01    4.2                    -7448.7222966426
   201 OT CG       0.87E-01   10.7     0.00031808     -7448.7223025215 -6.01E-02
   202 OT LS       0.86E-01    4.2                    -7448.7808303735
   203 OT CG       0.86E-01   10.7     0.00031215     -7448.7808386983 -5.85E-02
   204 OT LS       0.87E-01    4.2                    -7448.8377168900
   205 OT CG       0.87E-01   10.7     0.00030502     -7448.8377221687 -5.69E-02
   206 OT LS       0.88E-01    4.2                    -7448.8925368072
   207 OT CG       0.88E-01   10.7     0.00029781     -7448.8925410307 -5.48E-02
   208 OT LS       0.89E-01    4.2                    -7448.9455323034
   209 OT CG       0.89E-01   10.7     0.00029445     -7448.9455416251 -5.30E-02
   210 OT LS       0.89E-01    4.2                    -7448.9973423003
   211 OT CG       0.89E-01   10.8     0.00029112     -7448.9973422186 -5.18E-02
   212 OT LS       0.89E-01    4.2                    -7449.0476296310
   213 OT CG       0.89E-01   10.7     0.00028649     -7449.0476314731 -5.03E-02
   214 OT LS       0.88E-01    4.2                    -7449.0961178404
   215 OT CG       0.88E-01   10.7     0.00028088     -7449.0961186505 -4.85E-02
   216 OT LS       0.88E-01    4.2                    -7449.1426513291
   217 OT CG       0.88E-01   10.7     0.00027668     -7449.1426515504 -4.65E-02
   218 OT LS       0.88E-01    4.2                    -7449.1879588779
   219 OT CG       0.88E-01   10.7     0.00027460     -7449.1879592602 -4.53E-02
   220 OT LS       0.88E-01    4.2                    -7449.2323176266
   221 OT CG       0.88E-01   10.7     0.00026996     -7449.2323189624 -4.44E-02
   222 OT LS       0.89E-01    4.2                    -7449.2756109011
   223 OT CG       0.89E-01   10.7     0.00026484     -7449.2756156144 -4.33E-02
   224 OT LS       0.89E-01    4.2                    -7449.3173901145
   225 OT CG       0.89E-01   10.7     0.00025999     -7449.3173902533 -4.18E-02
   226 OT LS       0.89E-01    4.2                    -7449.3578331350
   227 OT CG       0.89E-01   10.9     0.00025822     -7449.3578337352 -4.04E-02
   228 OT LS       0.89E-01    4.2                    -7449.3973408869
   229 OT CG       0.89E-01   10.7     0.00025573     -7449.3973445093 -3.95E-02
   230 OT LS       0.88E-01    4.2                    -7449.4357967636
   231 OT CG       0.88E-01   10.7     0.00025194     -7449.4357986284 -3.85E-02
   232 OT LS       0.88E-01    4.2                    -7449.4731336816
   233 OT CG       0.88E-01   10.7     0.00024670     -7449.4731336501 -3.73E-02
   234 OT LS       0.88E-01    4.2                    -7449.5091417766
   235 OT CG       0.88E-01   10.7     0.00024292     -7449.5091427156 -3.60E-02
   236 OT LS       0.89E-01    4.2                    -7449.5444348309
   237 OT CG       0.89E-01   10.7     0.00024036     -7449.5444386433 -3.53E-02
   238 OT LS       0.89E-01    4.2                    -7449.5787419621
   239 OT CG       0.89E-01   10.7     0.00023728     -7449.5787434920 -3.43E-02
   240 OT LS       0.89E-01    4.2                    -7449.6122599712
   241 OT CG       0.89E-01   10.7     0.00023266     -7449.6122603008 -3.35E-02
   242 OT LS       0.89E-01    4.2                    -7449.6446893805
   243 OT CG       0.89E-01   10.8     0.00022868     -7449.6446905284 -3.24E-02
   244 OT LS       0.90E-01    4.2                    -7449.6761958780
   245 OT CG       0.90E-01   10.7     0.00022714     -7449.6761966105 -3.15E-02
   246 OT LS       0.89E-01    4.2                    -7449.7068578248
   247 OT CG       0.89E-01   10.7     0.00022507     -7449.7068634011 -3.07E-02
   248 OT LS       0.89E-01    4.2                    -7449.7369404596
   249 OT CG       0.89E-01   10.7     0.00022163     -7449.7369404603 -3.01E-02
   250 OT LS       0.89E-01    4.2                    -7449.7660684147
   251 OT CG       0.89E-01   10.7     0.00021708     -7449.7660684197 -2.91E-02
   252 OT LS       0.90E-01    4.2                    -7449.7943923223
   253 OT CG       0.90E-01   10.7     0.00021434     -7449.7943970667 -2.83E-02
   254 OT LS       0.90E-01    4.2                    -7449.8219642053
   255 OT CG       0.90E-01   10.7     0.00021241     -7449.8219643332 -2.76E-02
   256 OT LS       0.90E-01    4.2                    -7449.8489883475
   257 OT CG       0.90E-01   10.7     0.00020976     -7449.8489883664 -2.70E-02
   258 OT LS       0.90E-01    4.2                    -7449.8753818928
   259 OT CG       0.90E-01   11.1     0.00020590     -7449.8753820039 -2.64E-02
   260 OT LS       0.90E-01    4.2                    -7449.9008597243
   261 OT CG       0.90E-01   10.7     0.00020306     -7449.9008597485 -2.55E-02
   262 OT LS       0.89E-01    4.4                    -7449.9255561469
   263 OT CG       0.89E-01   12.0     0.00020191     -7449.9255565508 -2.47E-02
   264 OT LS       0.88E-01    4.2                    -7449.9496356263
   265 OT CG       0.88E-01   10.7     0.00019973     -7449.9496402413 -2.41E-02
   266 OT LS       0.89E-01    4.2                    -7449.9734101668
   267 OT CG       0.89E-01   10.7     0.00019660     -7449.9734122700 -2.38E-02
   268 OT LS       0.90E-01    4.2                    -7449.9966051844
   269 OT CG       0.90E-01   10.7     0.00019259     -7449.9966063462 -2.32E-02
   270 OT LS       0.91E-01    4.2                    -7450.0192131630
   271 OT CG       0.91E-01   10.7     0.00019085     -7450.0192182192 -2.26E-02
   272 OT LS       0.90E-01    4.2                    -7450.0412261635
   273 OT CG       0.90E-01   10.7     0.00018963     -7450.0412280693 -2.20E-02
   274 OT LS       0.89E-01    4.2                    -7450.0626980048
   275 OT CG       0.89E-01   12.4     0.00018821     -7450.0627007675 -2.15E-02
   276 OT LS       0.88E-01    8.1                    -7450.0836599875
   277 OT CG       0.88E-01   13.0     0.00018502     -7450.0836615346 -2.10E-02
   278 OT LS       0.89E-01    4.2                    -7450.1040323972
   279 OT CG       0.89E-01   10.7     0.00018220     -7450.1040329510 -2.04E-02
   280 OT LS       0.90E-01    4.2                    -7450.1239755465
   281 OT CG       0.90E-01   10.7     0.00018044     -7450.1239770797 -1.99E-02
   282 OT LS       0.90E-01    4.2                    -7450.1436118183
   283 OT CG       0.90E-01   10.7     0.00017852     -7450.1436120978 -1.96E-02
   284 OT LS       0.90E-01    4.2                    -7450.1628703657
   285 OT CG       0.90E-01   10.7     0.00017637     -7450.1628705032 -1.93E-02
   286 OT LS       0.90E-01    4.2                    -7450.1815226374
   287 OT CG       0.90E-01   10.7     0.00017360     -7450.1815236908 -1.87E-02
   288 OT LS       0.90E-01    4.2                    -7450.1996539790
   289 OT CG       0.90E-01   10.7     0.00017226     -7450.1996540873 -1.81E-02
   290 OT LS       0.90E-01    4.4                    -7450.2174535801
   291 OT CG       0.90E-01   10.7     0.00017087     -7450.2174537457 -1.78E-02
   292 OT LS       0.90E-01    4.2                    -7450.2349832301
   293 OT CG       0.90E-01   10.7     0.00016920     -7450.2349832522 -1.75E-02
   294 OT LS       0.90E-01    4.2                    -7450.2521457707
   295 OT CG       0.90E-01   10.7     0.00016641     -7450.2521457882 -1.72E-02
   296 OT LS       0.90E-01    4.2                    -7450.2688538428
   297 OT CG       0.90E-01   10.7     0.00016449     -7450.2688544426 -1.67E-02
   298 OT LS       0.90E-01    4.2                    -7450.2851842876
   299 OT CG       0.90E-01   10.7     0.00016313     -7450.2851842869 -1.63E-02
   300 OT LS       0.90E-01    4.2                    -7450.3012523690
   301 OT CG       0.90E-01   10.7     0.00016158     -7450.3012523619 -1.61E-02
   302 OT LS       0.90E-01    4.2                    -7450.3170482474
   303 OT CG       0.90E-01   10.7     0.00015976     -7450.3170483566 -1.58E-02
   304 OT LS       0.90E-01    4.2                    -7450.3323620443
   305 OT CG       0.90E-01   10.7     0.00015766     -7450.3323631215 -1.53E-02
   306 OT LS       0.90E-01    4.2                    -7450.3473716446
   307 OT CG       0.90E-01   10.8     0.00015627     -7450.3473721390 -1.50E-02
   308 OT LS       0.90E-01    4.2                    -7450.3621150155
   309 OT CG       0.90E-01   10.7     0.00015551     -7450.3621150100 -1.47E-02
   310 OT LS       0.90E-01    4.2                    -7450.3766073433
   311 OT CG       0.90E-01   10.7     0.00015389     -7450.3766080244 -1.45E-02
   312 OT LS       0.90E-01    4.2                    -7450.3908401004
   313 OT CG       0.90E-01   10.7     0.00015174     -7450.3908402276 -1.42E-02
   314 OT LS       0.90E-01    4.2                    -7450.4047026002
   315 OT CG       0.90E-01   10.7     0.00015026     -7450.4047026186 -1.39E-02
   316 OT LS       0.90E-01    4.2                    -7450.4183590867
   317 OT CG       0.90E-01   10.7     0.00014915     -7450.4183593359 -1.37E-02
   318 OT LS       0.90E-01    4.2                    -7450.4317719987
   319 OT CG       0.90E-01   10.7     0.00014820     -7450.4317721106 -1.34E-02
   320 OT LS       0.90E-01    4.2                    -7450.4449589164
   321 OT CG       0.90E-01   10.7     0.00014657     -7450.4449591149 -1.32E-02
   322 OT LS       0.89E-01    4.2                    -7450.4577914817
   323 OT CG       0.89E-01   10.9     0.00014466     -7450.4577918312 -1.28E-02
   324 OT LS       0.90E-01    4.2                    -7450.4704146656
   325 OT CG       0.90E-01   10.7     0.00014364     -7450.4704157614 -1.26E-02
   326 OT LS       0.90E-01    4.2                    -7450.4828278590
   327 OT CG       0.90E-01   10.7     0.00014225     -7450.4828279550 -1.24E-02
   328 OT LS       0.91E-01    4.2                    -7450.4950980637
   329 OT CG       0.91E-01   10.7     0.00014067     -7450.4950989097 -1.23E-02
   330 OT LS       0.91E-01    4.2                    -7450.5071098371
   331 OT CG       0.91E-01   10.7     0.00013858     -7450.5071098480 -1.20E-02
   332 OT LS       0.91E-01    4.2                    -7450.5188408096
   333 OT CG       0.91E-01   10.7     0.00013751     -7450.5188412370 -1.17E-02
   334 OT LS       0.91E-01    4.2                    -7450.5303235504
   335 OT CG       0.91E-01   10.7     0.00013673     -7450.5303239822 -1.15E-02
   336 OT LS       0.90E-01    4.2                    -7450.5415806907
   337 OT CG       0.90E-01   10.7     0.00013556     -7450.5415814499 -1.13E-02
   338 OT LS       0.90E-01    4.2                    -7450.5526480779
   339 OT CG       0.90E-01   10.8     0.00013385     -7450.5526480783 -1.11E-02
   340 OT LS       0.90E-01    4.2                    -7450.5634490497
   341 OT CG       0.90E-01   12.8     0.00013221     -7450.5634490595 -1.08E-02
   342 OT LS       0.91E-01    4.2                    -7450.5740426033
   343 OT CG       0.91E-01   10.7     0.00013122     -7450.5740428692 -1.06E-02
   344 OT LS       0.90E-01    4.2                    -7450.5844299634
   345 OT CG       0.90E-01   10.7     0.00013005     -7450.5844301816 -1.04E-02
   346 OT LS       0.90E-01    4.2                    -7450.5946310643
   347 OT CG       0.90E-01   10.7     0.00012886     -7450.5946310643 -1.02E-02
   348 OT LS       0.90E-01    4.2                    -7450.6045844969
   349 OT CG       0.90E-01   10.7     0.00012740     -7450.6045848873 -9.95E-03
   350 OT LS       0.90E-01    4.2                    -7450.6143579531
   351 OT CG       0.90E-01   10.7     0.00012654     -7450.6143581347 -9.77E-03
   352 OT LS       0.90E-01    4.2                    -7450.6239740927
   353 OT CG       0.90E-01   10.7     0.00012514     -7450.6239741568 -9.62E-03
   354 OT LS       0.90E-01    5.8                    -7450.6334273147
   355 OT CG       0.90E-01   17.4     0.00012438     -7450.6334275747 -9.45E-03
   356 OT LS       0.90E-01    4.2                    -7450.6427400861
   357 OT CG       0.90E-01   10.7     0.00012285     -7450.6427401600 -9.31E-03
   358 OT LS       0.90E-01    4.2                    -7450.6518566317
   359 OT CG       0.90E-01   10.7     0.00012180     -7450.6518567296 -9.12E-03
   360 OT LS       0.91E-01    4.2                    -7450.6608838311
   361 OT CG       0.91E-01   10.7     0.00012099     -7450.6608843175 -9.03E-03
   362 OT LS       0.90E-01    4.2                    -7450.6697393736
   363 OT CG       0.90E-01   10.7     0.00012003     -7450.6697396887 -8.86E-03
   364 OT LS       0.91E-01    4.2                    -7450.6784695719
   365 OT CG       0.91E-01   10.7     0.00011885     -7450.6784695967 -8.73E-03
   366 OT LS       0.90E-01    4.2                    -7450.6870207574
   367 OT CG       0.90E-01   10.7     0.00011769     -7450.6870207649 -8.55E-03
   368 OT LS       0.91E-01    4.2                    -7450.6954291887
   369 OT CG       0.91E-01   10.7     0.00011706     -7450.6954292486 -8.41E-03
   370 OT LS       0.90E-01    4.4                    -7450.7036880388
   371 OT CG       0.90E-01   10.7     0.00011594     -7450.7036884626 -8.26E-03
   372 OT LS       0.91E-01    4.2                    -7450.7118333018
   373 OT CG       0.91E-01   10.7     0.00011525     -7450.7118335381 -8.15E-03
   374 OT LS       0.90E-01    4.2                    -7450.7198382028
   375 OT CG       0.90E-01   10.7     0.00011387     -7450.7198384515 -8.00E-03
   376 OT LS       0.91E-01    4.2                    -7450.7277209116
   377 OT CG       0.91E-01   10.7     0.00011327     -7450.7277214984 -7.88E-03
   378 OT LS       0.90E-01    4.2                    -7450.7354897945
   379 OT CG       0.90E-01   10.7     0.00011231     -7450.7354899331 -7.77E-03
   380 OT LS       0.90E-01    4.2                    -7450.7430973799
   381 OT CG       0.90E-01   10.7     0.00011137     -7450.7430974907 -7.61E-03
   382 OT LS       0.90E-01    4.2                    -7450.7505835298
   383 OT CG       0.90E-01   10.7     0.00011026     -7450.7505835349 -7.49E-03
   384 OT LS       0.90E-01    4.2                    -7450.7579164660
   385 OT CG       0.90E-01   10.7     0.00010919     -7450.7579164706 -7.33E-03
   386 OT LS       0.90E-01    4.4                    -7450.7651308087
   387 OT CG       0.90E-01   10.7     0.00010857     -7450.7651308793 -7.21E-03
   388 OT LS       0.90E-01    4.2                    -7450.7722473778
   389 OT CG       0.90E-01   10.7     0.00010739     -7450.7722474131 -7.12E-03
   390 OT LS       0.91E-01    4.2                    -7450.7792598117
   391 OT CG       0.91E-01   10.7     0.00010662     -7450.7792601743 -7.01E-03
   392 OT LS       0.91E-01    4.2                    -7450.7861582753
   393 OT CG       0.91E-01   10.7     0.00010558     -7450.7861583064 -6.90E-03
   394 OT LS       0.91E-01    4.2                    -7450.7929164107
   395 OT CG       0.91E-01   10.7     0.00010505     -7450.7929164179 -6.76E-03
   396 OT LS       0.90E-01    4.2                    -7450.7995817441
   397 OT CG       0.90E-01   10.7     0.00010428     -7450.7995818464 -6.67E-03
   398 OT LS       0.90E-01    4.2                    -7450.8061094964
   399 OT CG       0.90E-01   10.7     0.00010329     -7450.8061097299 -6.53E-03
   400 OT LS       0.90E-01    4.2                    -7450.8125677901
   401 OT CG       0.90E-01   10.7     0.00010229     -7450.8125682453 -6.46E-03
   402 OT LS       0.90E-01    4.2                    -7450.8189078926
   403 OT CG       0.90E-01   10.8     0.00010139     -7450.8189078962 -6.34E-03
   404 OT LS       0.91E-01    4.2                    -7450.8251506023
   405 OT CG       0.91E-01   10.7     0.00010092     -7450.8251506299 -6.24E-03
   406 OT LS       0.90E-01    4.2                    -7450.8312913947
   407 OT CG       0.90E-01   10.7     0.00009992     -7450.8312916964 -6.14E-03
   408 OT LS       0.90E-01    4.2                    -7450.8373387842
   409 OT CG       0.90E-01   10.7     0.00009925     -7450.8373389075 -6.05E-03
   410 OT LS       0.90E-01    4.2                    -7450.8432823312
   411 OT CG       0.90E-01   10.7     0.00009827     -7450.8432824230 -5.94E-03
   412 OT LS       0.91E-01    4.2                    -7450.8491416336
   413 OT CG       0.91E-01   10.7     0.00009770     -7450.8491418029 -5.86E-03
   414 OT LS       0.91E-01    4.2                    -7450.8549409890
   415 OT CG       0.91E-01   10.7     0.00009686     -7450.8549409988 -5.80E-03
   416 OT LS       0.91E-01    4.2                    -7450.8606642874
   417 OT CG       0.91E-01   10.7     0.00009613     -7450.8606643957 -5.72E-03
   418 OT LS       0.91E-01    4.2                    -7450.8662940373
   419 OT CG       0.91E-01   10.8     0.00009546     -7450.8662940490 -5.63E-03
   420 OT LS       0.90E-01    6.6                    -7450.8717911593
   421 OT CG       0.90E-01   10.7     0.00009492     -7450.8717917103 -5.50E-03
   422 OT LS       0.90E-01    4.2                    -7450.8772244784
   423 OT CG       0.90E-01   10.7     0.00009404     -7450.8772244808 -5.43E-03
   424 OT LS       0.91E-01    4.2                    -7450.8825934347
   425 OT CG       0.91E-01   10.7     0.00009322     -7450.8825936885 -5.37E-03
   426 OT LS       0.91E-01    4.2                    -7450.8878856454
   427 OT CG       0.91E-01   10.7     0.00009259     -7450.8878857043 -5.29E-03
   428 OT LS       0.91E-01    4.2                    -7450.8930850850
   429 OT CG       0.91E-01   10.7     0.00009202     -7450.8930851789 -5.20E-03
   430 OT LS       0.90E-01    4.2                    -7450.8982022790
   431 OT CG       0.90E-01   10.7     0.00009146     -7450.8982023505 -5.12E-03
   432 OT LS       0.91E-01    4.2                    -7450.9032703264
   433 OT CG       0.91E-01   11.4     0.00009081     -7450.9032703564 -5.07E-03
   434 OT LS       0.90E-01    9.2                    -7450.9082630722
   435 OT CG       0.90E-01   11.9     0.00009035     -7450.9082630739 -4.99E-03
   436 OT LS       0.90E-01    4.2                    -7450.9131824614
   437 OT CG       0.90E-01   10.7     0.00008944     -7450.9131825691 -4.92E-03
   438 OT LS       0.91E-01    4.2                    -7450.9180326385
   439 OT CG       0.91E-01   10.7     0.00008884     -7450.9180328137 -4.85E-03
   440 OT LS       0.91E-01    4.2                    -7450.9228277822
   441 OT CG       0.91E-01   10.7     0.00008839     -7450.9228277985 -4.79E-03
   442 OT LS       0.90E-01    4.2                    -7450.9275403387
   443 OT CG       0.90E-01   10.7     0.00008772     -7450.9275405674 -4.71E-03
   444 OT LS       0.91E-01    4.2                    -7450.9322149547
   445 OT CG       0.91E-01   10.7     0.00008704     -7450.9322151878 -4.67E-03
   446 OT LS       0.90E-01    4.2                    -7450.9368014748
   447 OT CG       0.90E-01   10.7     0.00008649     -7450.9368015320 -4.59E-03
   448 OT LS       0.90E-01    4.2                    -7450.9413293053
   449 OT CG       0.90E-01   10.7     0.00008585     -7450.9413293058 -4.53E-03
   450 OT LS       0.91E-01    4.3                    -7450.9457967912
   451 OT CG       0.91E-01   10.7     0.00008514     -7450.9457968001 -4.47E-03
   452 OT LS       0.91E-01    4.2                    -7450.9501917420
   453 OT CG       0.91E-01   10.7     0.00008456     -7450.9501917423 -4.39E-03
   454 OT LS       0.90E-01    4.2                    -7450.9545155967
   455 OT CG       0.90E-01   10.7     0.00008374     -7450.9545156234 -4.32E-03
   456 OT LS       0.91E-01    4.2                    -7450.9587803905
   457 OT CG       0.91E-01   10.7     0.00008322     -7450.9587805208 -4.26E-03
   458 OT LS       0.91E-01    4.2                    -7450.9630002284
   459 OT CG       0.91E-01   10.7     0.00008277     -7450.9630002394 -4.22E-03
   460 OT LS       0.91E-01    4.2                    -7450.9671626461
   461 OT CG       0.91E-01   10.7     0.00008215     -7450.9671626736 -4.16E-03
   462 OT LS       0.91E-01    4.2                    -7450.9712828858
   463 OT CG       0.91E-01   10.7     0.00008161     -7450.9712829880 -4.12E-03
   464 OT LS       0.91E-01    4.2                    -7450.9753228545
   465 OT CG       0.91E-01   10.7     0.00008108     -7450.9753230409 -4.04E-03
   466 OT LS       0.91E-01    4.3                    -7450.9793162695
   467 OT CG       0.91E-01   10.7     0.00008075     -7450.9793162771 -3.99E-03
   468 OT LS       0.90E-01    4.2                    -7450.9832414512
   469 OT CG       0.90E-01   10.7     0.00008002     -7450.9832417678 -3.93E-03
   470 OT LS       0.91E-01    4.2                    -7450.9871351608
   471 OT CG       0.91E-01   10.7     0.00007947     -7450.9871355462 -3.89E-03
   472 OT LS       0.91E-01    4.2                    -7450.9909623083
   473 OT CG       0.91E-01   10.7     0.00007877     -7450.9909623578 -3.83E-03
   474 OT LS       0.91E-01    4.2                    -7450.9947358303
   475 OT CG       0.91E-01   10.7     0.00007833     -7450.9947358807 -3.77E-03
   476 OT LS       0.91E-01    4.2                    -7450.9984543115
   477 OT CG       0.91E-01   10.7     0.00007778     -7450.9984543606 -3.72E-03
   478 OT LS       0.90E-01    4.2                    -7451.0021116589
   479 OT CG       0.90E-01   10.7     0.00007745     -7451.0021116765 -3.66E-03
   480 OT LS       0.90E-01    4.2                    -7451.0057198505
   481 OT CG       0.90E-01   10.7     0.00007680     -7451.0057199406 -3.61E-03
   482 OT LS       0.90E-01    4.2                    -7451.0092876033
   483 OT CG       0.90E-01   10.8     0.00007626     -7451.0092877059 -3.57E-03
   484 OT LS       0.91E-01    4.2                    -7451.0128276426
   485 OT CG       0.91E-01   10.7     0.00007578     -7451.0128277736 -3.54E-03
   486 OT LS       0.91E-01    4.2                    -7451.0163260076
   487 OT CG       0.91E-01   10.7     0.00007544     -7451.0163260097 -3.50E-03
   488 OT LS       0.91E-01    4.2                    -7451.0197935735
   489 OT CG       0.91E-01   10.7     0.00007493     -7451.0197935738 -3.47E-03
   490 OT LS       0.91E-01    4.2                    -7451.0232132792
   491 OT CG       0.91E-01   10.7     0.00007444     -7451.0232132797 -3.42E-03
   492 OT LS       0.91E-01    4.2                    -7451.0265939311
   493 OT CG       0.91E-01   10.7     0.00007413     -7451.0265939394 -3.38E-03
   494 OT LS       0.91E-01    4.2                    -7451.0299267465
   495 OT CG       0.91E-01   10.7     0.00007366     -7451.0299268659 -3.33E-03
   496 OT LS       0.91E-01    4.2                    -7451.0332259125
   497 OT CG       0.91E-01   10.7     0.00007325     -7451.0332259353 -3.30E-03
   498 OT LS       0.91E-01    4.2                    -7451.0364834413
   499 OT CG       0.91E-01   12.5     0.00007266     -7451.0364834486 -3.26E-03
   500 OT LS       0.91E-01    4.2                    -7451.0396903046

  Leaving inner SCF loop after reaching   500 steps.


  Electronic density on regular grids:      -3293.9999971278        0.0000028722
  Core density on regular grids:             3293.9999998088       -0.0000001912
  Total charge density on r-space grids:        0.0000026810
  Total charge density g-space grids:           0.0000026810

  Overlap energy of the core charge distribution:               0.00000837114296
  Self energy of the core charge distribution:             -19176.80504026551716
  Core Hamiltonian energy:                                   5441.32168913278656
  Hartree energy:                                            8022.62102342979506
  Exchange-correlation energy:                              -1736.03932960962834
  Dispersion energy:                                           -2.13804136312831

  Total energy:                                             -7451.03969030455028

  outer SCF iter =    1 RMS gradient =   0.73E-04 energy =      -7451.0396903046

  ----------------------------------- OT ---------------------------------------
  Minimizer      : CG                  : conjugate gradient
  Preconditioner : FULL_ALL            : diagonalization, state selective
  Precond_solver : DEFAULT
  Line search    : 2PNT                : 2 energies, one gradient
  stepsize       :    0.15000000                  energy_gap     :    0.00100000
  eps_taylor     :   0.10000E-15                  max_taylor     :             4
  ----------------------------------- OT ---------------------------------------

  Step     Update method      Time    Convergence         Total energy    Change
  ------------------------------------------------------------------------------
     1 OT CG       0.15E+00   45.0     0.00049179     -7451.0396903048 -3.21E-03
     2 OT LS       0.25E+00    4.2                    -7451.3787323778
     3 OT CG       0.25E+00   10.7     0.00003044     -7451.4413082094 -4.02E-01
     4 OT LS       0.65E-01    4.2                    -7451.4384922271
     5 OT CG       0.65E-01   10.7     0.00001084     -7451.4417119348 -4.04E-04
     6 OT LS       0.74E-01    4.2                    -7451.4417695331
     7 OT CG       0.74E-01   10.7     0.00000373     -7451.4417704337 -5.85E-05
     8 OT LS       0.13E+00    5.2                    -7451.4417804159
     9 OT CG       0.13E+00   16.8     0.00000158     -7451.4417829580 -1.25E-05
    10 OT LS       0.94E-01    4.3                    -7451.4417842500
    11 OT CG       0.94E-01   10.7     0.00000068     -7451.4417845348 -1.58E-06

  *** SCF run converged in    11 steps ***


  Electronic density on regular grids:      -3293.9999971274        0.0000028726
  Core density on regular grids:             3293.9999998088       -0.0000001912
  Total charge density on r-space grids:        0.0000026814
  Total charge density g-space grids:           0.0000026814

  Overlap energy of the core charge distribution:               0.00000837114296
  Self energy of the core charge distribution:             -19176.80504026551716
  Core Hamiltonian energy:                                   5440.89749202073563
  Hartree energy:                                            8022.70578374575598
  Exchange-correlation energy:                              -1736.10198704379036
  Dispersion energy:                                           -2.13804136312831

  Total energy:                                             -7451.44178453480163

  outer SCF iter =    2 RMS gradient =   0.68E-06 energy =      -7451.4417845348
  outer SCF loop converged in   2 iterations or  511 steps


 ENERGY| Total FORCE_EVAL ( QS ) energy (a.u.):            -7451.441784810014724


 ATOMIC FORCES in [a.u.]

 # Atom   Kind   Element          X              Y              Z
      1      1      Ti          0.00000000     0.00000000     0.00000000
      2      2      Si          0.00000000     0.00000000     0.00000000
      3      2      Si          0.00000000     0.00000000     0.00000000
      4      2      Si          0.00000000     0.00000000     0.00000000
      5      2      Si          0.00000000     0.00000000     0.00000000
      6      2      Si          0.00000000     0.00000000     0.00000000
      7      2      Si          0.00000000     0.00000000     0.00000000
      8      2      Si          0.00000000     0.00000000     0.00000000
      9      2      Si          0.00000000     0.00000000     0.00000000
     10      2      Si          0.00000000     0.00000000     0.00000000
     11      2      Si          0.00000000     0.00000000     0.00000000
     12      2      Si          0.00000000     0.00000000     0.00000000
     13      2      Si          0.00000000     0.00000000     0.00000000
     14      2      Si          0.00000000     0.00000000     0.00000000
     15      2      Si          0.00000000     0.00000000     0.00000000
     16      2      Si          0.00000000     0.00000000     0.00000000
     17      2      Si          0.00000000     0.00000000     0.00000000
     18      2      Si          0.00000000     0.00000000     0.00000000
     19      2      Si          0.00000000     0.00000000     0.00000000
     20      2      Si          0.00000000     0.00000000     0.00000000
     21      2      Si          0.00000000     0.00000000     0.00000000
     22      2      Si          0.00000000     0.00000000     0.00000000
     23      2      Si          0.00000000     0.00000000     0.00000000
     24      2      Si          0.00000000     0.00000000     0.00000000
     25      2      Si          0.00000000     0.00000000     0.00000000
     26      2      Si          0.00000000     0.00000000     0.00000000
     27      2      Si          0.00000000     0.00000000     0.00000000
     28      2      Si          0.00000000     0.00000000     0.00000000
     29      2      Si          0.00000000     0.00000000     0.00000000
     30      2      Si          0.00000000     0.00000000     0.00000000
     31      2      Si          0.00000000     0.00000000     0.00000000
     32      2      Si          0.00000000     0.00000000     0.00000000
     33      2      Si          0.00000000     0.00000000     0.00000000
     34      2      Si          0.00000000     0.00000000     0.00000000
     35      2      Si          0.00000000     0.00000000     0.00000000
     36      2      Si          0.00000000     0.00000000     0.00000000
     37      2      Si          0.00000000     0.00000000     0.00000000
     38      2      Si          0.00000000     0.00000000     0.00000000
     39      2      Si          0.00000000     0.00000000     0.00000000
     40      2      Si          0.00000000     0.00000000     0.00000000
     41      2      Si          0.00000000     0.00000000     0.00000000
     42      2      Si          0.00000000     0.00000000     0.00000000
     43      2      Si          0.00000000     0.00000000     0.00000000
     44      2      Si          0.00000000     0.00000000     0.00000000
     45      2      Si          0.00000000     0.00000000     0.00000000
     46      2      Si          0.00000000     0.00000000     0.00000000
     47      2      Si          0.00000000     0.00000000     0.00000000
     48      2      Si          0.00000000     0.00000000     0.00000000
     49      2      Si          0.00000000     0.00000000     0.00000000
     50      2      Si          0.00000000     0.00000000     0.00000000
     51      2      Si          0.00000000     0.00000000     0.00000000
     52      2      Si          0.00000000     0.00000000     0.00000000
     53      2      Si          0.00000000     0.00000000     0.00000000
     54      2      Si          0.00000000     0.00000000     0.00000000
     55      2      Si          0.00000000     0.00000000     0.00000000
     56      2      Si          0.00000000     0.00000000     0.00000000
     57      2      Si          0.00000000     0.00000000     0.00000000
     58      2      Si          0.00000000     0.00000000     0.00000000
     59      2      Si          0.00000000     0.00000000     0.00000000
     60      2      Si          0.00000000     0.00000000     0.00000000
     61      2      Si          0.00000000     0.00000000     0.00000000
     62      2      Si          0.00000000     0.00000000     0.00000000
     63      2      Si          0.00000000     0.00000000     0.00000000
     64      2      Si          0.00000000     0.00000000     0.00000000
     65      2      Si          0.00000000     0.00000000     0.00000000
     66      2      Si          0.00000000     0.00000000     0.00000000
     67      2      Si          0.00000000     0.00000000     0.00000000
     68      2      Si          0.00000000     0.00000000     0.00000000
     69      2      Si          0.00000000     0.00000000     0.00000000
     70      2      Si          0.00000000     0.00000000     0.00000000
     71      2      Si          0.00000000     0.00000000     0.00000000
     72      2      Si          0.00000000     0.00000000     0.00000000
     73      2      Si          0.00000000     0.00000000     0.00000000
     74      2      Si          0.00000000     0.00000000     0.00000000
     75      2      Si          0.00000000     0.00000000     0.00000000
     76      2      Si          0.00000000     0.00000000     0.00000000
     77      2      Si          0.00000000     0.00000000     0.00000000
     78      2      Si          0.00000000     0.00000000     0.00000000
     79      2      Si          0.00000000     0.00000000     0.00000000
     80      2      Si          0.00000000     0.00000000     0.00000000
     81      2      Si          0.00000000     0.00000000     0.00000000
     82      2      Si          0.00000000     0.00000000     0.00000000
     83      2      Si          0.00000000     0.00000000     0.00000000
     84      2      Si          0.00000000     0.00000000     0.00000000
     85      2      Si          0.00000000     0.00000000     0.00000000
     86      2      Si          0.00000000     0.00000000     0.00000000
     87      2      Si          0.00000000     0.00000000     0.00000000
     88      2      Si          0.00000000     0.00000000     0.00000000
     89      2      Si          0.00000000     0.00000000     0.00000000
     90      2      Si          0.00000000     0.00000000     0.00000000
     91      2      Si          0.00000000     0.00000000     0.00000000
     92      2      Si          0.00000000     0.00000000     0.00000000
     93      2      Si          0.00000000     0.00000000     0.00000000
     94      2      Si          0.00000000     0.00000000     0.00000000
     95      2      Si          0.00000000     0.00000000     0.00000000
     96      2      Si          0.00000000     0.00000000     0.00000000
     97      2      Si          0.00000000     0.00000000     0.00000000
     98      2      Si          0.00000000     0.00000000     0.00000000
     99      2      Si          0.00000000     0.00000000     0.00000000
    100      2      Si          0.00000000     0.00000000     0.00000000
    101      2      Si          0.00000000     0.00000000     0.00000000
    102      2      Si          0.00000000     0.00000000     0.00000000
    103      2      Si          0.00000000     0.00000000     0.00000000
    104      2      Si          0.00000000     0.00000000     0.00000000
    105      2      Si          0.00000000     0.00000000     0.00000000
    106      2      Si          0.00000000     0.00000000     0.00000000
    107      2      Si          0.00000000     0.00000000     0.00000000
    108      2      Si          0.00000000     0.00000000     0.00000000
    109      2      Si          0.00000000     0.00000000     0.00000000
    110      2      Si          0.00000000     0.00000000     0.00000000
    111      2      Si          0.00000000     0.00000000     0.00000000
    112      2      Si          0.00000000     0.00000000     0.00000000
    113      2      Si          0.00000000     0.00000000     0.00000000
    114      2      Si          0.00000000     0.00000000     0.00000000
    115      2      Si          0.00000000     0.00000000     0.00000000
    116      2      Si          0.00000000     0.00000000     0.00000000
    117      2      Si          0.00000000     0.00000000     0.00000000
    118      2      Si          0.00000000     0.00000000     0.00000000
    119      2      Si          0.00000000     0.00000000     0.00000000
    120      2      Si          0.00000000     0.00000000     0.00000000
    121      2      Si          0.00000000     0.00000000     0.00000000
    122      2      Si          0.00000000     0.00000000     0.00000000
    123      2      Si          0.00000000     0.00000000     0.00000000
    124      2      Si          0.00000000     0.00000000     0.00000000
    125      2      Si          0.00000000     0.00000000     0.00000000
    126      2      Si          0.00000000     0.00000000     0.00000000
    127      2      Si          0.00000000     0.00000000     0.00000000
    128      2      Si          0.00000000     0.00000000     0.00000000
    129      2      Si          0.00000000     0.00000000     0.00000000
    130      2      Si          0.00000000     0.00000000     0.00000000
    131      2      Si          0.00000000     0.00000000     0.00000000
    132      2      Si          0.00000000     0.00000000     0.00000000
    133      2      Si          0.00000000     0.00000000     0.00000000
    134      2      Si          0.00000000     0.00000000     0.00000000
    135      2      Si          0.00000000     0.00000000     0.00000000
    136      2      Si          0.00000000     0.00000000     0.00000000
    137      2      Si          0.00000000     0.00000000     0.00000000
    138      2      Si          0.00000000     0.00000000     0.00000000
    139      2      Si          0.00000000     0.00000000     0.00000000
    140      2      Si          0.00000000     0.00000000     0.00000000
    141      2      Si          0.00000000     0.00000000     0.00000000
    142      2      Si          0.00000000     0.00000000     0.00000000
    143      2      Si          0.00000000     0.00000000     0.00000000
    144      2      Si          0.00000000     0.00000000     0.00000000
    145      2      Si          0.00000000     0.00000000     0.00000000
    146      2      Si          0.00000000     0.00000000     0.00000000
    147      2      Si          0.00000000     0.00000000     0.00000000
    148      2      Si          0.00000000     0.00000000     0.00000000
    149      2      Si          0.00000000     0.00000000     0.00000000
    150      2      Si          0.00000000     0.00000000     0.00000000
    151      2      Si          0.00000000     0.00000000     0.00000000
    152      2      Si          0.00000000     0.00000000     0.00000000
    153      2      Si          0.00000000     0.00000000     0.00000000
    154      2      Si          0.00000000     0.00000000     0.00000000
    155      2      Si          0.00000000     0.00000000     0.00000000
    156      2      Si          0.00000000     0.00000000     0.00000000
    157      2      Si          0.00000000     0.00000000     0.00000000
    158      2      Si          0.00000000     0.00000000     0.00000000
    159      2      Si          0.00000000     0.00000000     0.00000000
    160      2      Si          0.00000000     0.00000000     0.00000000
    161      2      Si          0.00000000     0.00000000     0.00000000
    162      2      Si          0.00000000     0.00000000     0.00000000
    163      2      Si          0.00000000     0.00000000     0.00000000
    164      2      Si          0.00000000     0.00000000     0.00000000
    165      2      Si          0.00000000     0.00000000     0.00000000
    166      2      Si          0.00000000     0.00000000     0.00000000
    167      2      Si          0.00000000     0.00000000     0.00000000
    168      2      Si          0.00000000     0.00000000     0.00000000
    169      2      Si          0.00000000     0.00000000     0.00000000
    170      2      Si          0.00000000     0.00000000     0.00000000
    171      2      Si          0.00000000     0.00000000     0.00000000
    172      2      Si          0.00000000     0.00000000     0.00000000
    173      2      Si          0.00000000     0.00000000     0.00000000
    174      2      Si          0.00000000     0.00000000     0.00000000
    175      2      Si          0.00000000     0.00000000     0.00000000
    176      2      Si          0.00000000     0.00000000     0.00000000
    177      2      Si          0.00000000     0.00000000     0.00000000
    178      2      Si          0.00000000     0.00000000     0.00000000
    179      2      Si          0.00000000     0.00000000     0.00000000
    180      2      Si          0.00000000     0.00000000     0.00000000
    181      2      Si          0.00000000     0.00000000     0.00000000
    182      2      Si          0.00000000     0.00000000     0.00000000
    183      2      Si          0.00000000     0.00000000     0.00000000
    184      2      Si          0.00000000     0.00000000     0.00000000
    185      2      Si          0.00000000     0.00000000     0.00000000
    186      2      Si          0.00000000     0.00000000     0.00000000
    187      2      Si          0.00000000     0.00000000     0.00000000
    188      2      Si          0.00000000     0.00000000     0.00000000
    189      2      Si          0.00000000     0.00000000     0.00000000
    190      2      Si          0.00000000     0.00000000     0.00000000
    191      2      Si          0.00000000     0.00000000     0.00000000
    192      3      O           0.00000000     0.00000000     0.00000000
    193      3      O           0.00000000     0.00000000     0.00000000
    194      3      O           0.00000000     0.00000000     0.00000000
    195      3      O           0.00000000     0.00000000     0.00000000
    196      3      O           0.00000000     0.00000000     0.00000000
    197      3      O           0.00000000     0.00000000     0.00000000
    198      3      O           0.00000000     0.00000000     0.00000000
    199      3      O           0.00000000     0.00000000     0.00000000
    200      3      O           0.00000000     0.00000000     0.00000000
    201      3      O           0.00000000     0.00000000     0.00000000
    202      3      O           0.00000000     0.00000000     0.00000000
    203      3      O           0.00000000     0.00000000     0.00000000
    204      3      O           0.00000000     0.00000000     0.00000000
    205      3      O           0.00000000     0.00000000     0.00000000
    206      3      O           0.00000000     0.00000000     0.00000000
    207      3      O           0.00000000     0.00000000     0.00000000
    208      3      O           0.00000000     0.00000000     0.00000000
    209      3      O           0.00000000     0.00000000     0.00000000
    210      3      O           0.00000000     0.00000000     0.00000000
    211      3      O           0.00000000     0.00000000     0.00000000
    212      3      O           0.00000000     0.00000000     0.00000000
    213      3      O           0.00000000     0.00000000     0.00000000
    214      3      O           0.00000000     0.00000000     0.00000000
    215      3      O           0.00000000     0.00000000     0.00000000
    216      3      O           0.00000000     0.00000000     0.00000000
    217      3      O           0.00000000     0.00000000     0.00000000
    218      3      O           0.00000000     0.00000000     0.00000000
    219      3      O           0.00000000     0.00000000     0.00000000
    220      3      O           0.00000000     0.00000000     0.00000000
    221      3      O           0.00000000     0.00000000     0.00000000
    222      3      O           0.00000000     0.00000000     0.00000000
    223      3      O           0.00000000     0.00000000     0.00000000
    224      3      O           0.00000000     0.00000000     0.00000000
    225      3      O           0.00000000     0.00000000     0.00000000
    226      3      O           0.00000000     0.00000000     0.00000000
    227      3      O           0.00000000     0.00000000     0.00000000
    228      3      O           0.00000000     0.00000000     0.00000000
    229      3      O           0.00000000     0.00000000     0.00000000
    230      3      O           0.00000000     0.00000000     0.00000000
    231      3      O           0.00000000     0.00000000     0.00000000
    232      3      O           0.00000000     0.00000000     0.00000000
    233      3      O           0.00000000     0.00000000     0.00000000
    234      3      O           0.00000000     0.00000000     0.00000000
    235      3      O           0.00000000     0.00000000     0.00000000
    236      3      O           0.00000000     0.00000000     0.00000000
    237      3      O           0.00000000     0.00000000     0.00000000
    238      3      O           0.00000000     0.00000000     0.00000000
    239      3      O           0.00000000     0.00000000     0.00000000
    240      3      O           0.00000000     0.00000000     0.00000000
    241      3      O           0.00000000     0.00000000     0.00000000
    242      3      O           0.00000000     0.00000000     0.00000000
    243      3      O           0.00000000     0.00000000     0.00000000
    244      3      O           0.00000000     0.00000000     0.00000000
    245      3      O           0.00000000     0.00000000     0.00000000
    246      3      O           0.00000000     0.00000000     0.00000000
    247      3      O           0.00000000     0.00000000     0.00000000
    248      3      O           0.00000000     0.00000000     0.00000000
    249      3      O           0.00000000     0.00000000     0.00000000
    250      3      O           0.00000000     0.00000000     0.00000000
    251      3      O           0.00000000     0.00000000     0.00000000
    252      3      O           0.00000000     0.00000000     0.00000000
    253      3      O           0.00000000     0.00000000     0.00000000
    254      3      O           0.00000000     0.00000000     0.00000000
    255      3      O           0.00000000     0.00000000     0.00000000
    256      3      O           0.00000000     0.00000000     0.00000000
    257      3      O           0.00000000     0.00000000     0.00000000
    258      3      O           0.00000000     0.00000000     0.00000000
    259      3      O           0.00000000     0.00000000     0.00000000
    260      3      O           0.00000000     0.00000000     0.00000000
    261      3      O           0.00000000     0.00000000     0.00000000
    262      3      O           0.00000000     0.00000000     0.00000000
    263      3      O           0.00000000     0.00000000     0.00000000
    264      3      O           0.00000000     0.00000000     0.00000000
    265      3      O           0.00000000     0.00000000     0.00000000
    266      3      O           0.00000000     0.00000000     0.00000000
    267      3      O           0.00000000     0.00000000     0.00000000
    268      3      O           0.00000000     0.00000000     0.00000000
    269      3      O           0.00000000     0.00000000     0.00000000
    270      3      O           0.00000000     0.00000000     0.00000000
    271      3      O           0.00000000     0.00000000     0.00000000
    272      3      O           0.00000000     0.00000000     0.00000000
    273      3      O           0.00000000     0.00000000     0.00000000
    274      3      O           0.00000000     0.00000000     0.00000000
    275      3      O           0.00000000     0.00000000     0.00000000
    276      3      O           0.00000000     0.00000000     0.00000000
    277      3      O           0.00000000     0.00000000     0.00000000
    278      3      O           0.00000000     0.00000000     0.00000000
    279      3      O           0.00000000     0.00000000     0.00000000
    280      3      O           0.00000000     0.00000000     0.00000000
    281      3      O           0.00000000     0.00000000     0.00000000
    282      3      O           0.00000000     0.00000000     0.00000000
    283      3      O           0.00000000     0.00000000     0.00000000
    284      3      O           0.00000000     0.00000000     0.00000000
    285      3      O           0.00000000     0.00000000     0.00000000
    286      3      O           0.00000000     0.00000000     0.00000000
    287      3      O           0.00000000     0.00000000     0.00000000
    288      3      O           0.00000000     0.00000000     0.00000000
    289      3      O           0.00000000     0.00000000     0.00000000
    290      3      O           0.00000000     0.00000000     0.00000000
    291      3      O           0.00000000     0.00000000     0.00000000
    292      3      O           0.00000000     0.00000000     0.00000000
    293      3      O           0.00000000     0.00000000     0.00000000
    294      3      O           0.00000000     0.00000000     0.00000000
    295      3      O           0.00000000     0.00000000     0.00000000
    296      3      O           0.00000000     0.00000000     0.00000000
    297      3      O           0.00000000     0.00000000     0.00000000
    298      3      O           0.00000000     0.00000000     0.00000000
    299      3      O           0.00000000     0.00000000     0.00000000
    300      3      O           0.00000000     0.00000000     0.00000000
    301      3      O           0.00000000     0.00000000     0.00000000
    302      3      O           0.00000000     0.00000000     0.00000000
    303      3      O           0.00000000     0.00000000     0.00000000
    304      3      O           0.00000000     0.00000000     0.00000000
    305      3      O           0.00000000     0.00000000     0.00000000
    306      3      O           0.00000000     0.00000000     0.00000000
    307      3      O           0.00000000     0.00000000     0.00000000
    308      3      O           0.00000000     0.00000000     0.00000000
    309      3      O           0.00000000     0.00000000     0.00000000
    310      3      O           0.00000000     0.00000000     0.00000000
    311      3      O           0.00000000     0.00000000     0.00000000
    312      3      O           0.00000000     0.00000000     0.00000000
    313      3      O           0.00000000     0.00000000     0.00000000
    314      3      O           0.00000000     0.00000000     0.00000000
    315      3      O           0.00000000     0.00000000     0.00000000
    316      3      O           0.00000000     0.00000000     0.00000000
    317      3      O           0.00000000     0.00000000     0.00000000
    318      3      O           0.00000000     0.00000000     0.00000000
    319      3      O           0.00000000     0.00000000     0.00000000
    320      3      O           0.00000000     0.00000000     0.00000000
    321      3      O           0.00000000     0.00000000     0.00000000
    322      3      O           0.00000000     0.00000000     0.00000000
    323      3      O           0.00000000     0.00000000     0.00000000
    324      3      O           0.00000000     0.00000000     0.00000000
    325      3      O           0.00000000     0.00000000     0.00000000
    326      3      O           0.00000000     0.00000000     0.00000000
    327      3      O           0.00000000     0.00000000     0.00000000
    328      3      O           0.00000000     0.00000000     0.00000000
    329      3      O           0.00000000     0.00000000     0.00000000
    330      3      O           0.00000000     0.00000000     0.00000000
    331      3      O           0.00000000     0.00000000     0.00000000
    332      3      O           0.00000000     0.00000000     0.00000000
    333      3      O           0.00000000     0.00000000     0.00000000
    334      3      O           0.00000000     0.00000000     0.00000000
    335      3      O           0.00000000     0.00000000     0.00000000
    336      3      O           0.00000000     0.00000000     0.00000000
    337      3      O           0.00000000     0.00000000     0.00000000
    338      3      O           0.00000000     0.00000000     0.00000000
    339      3      O           0.00000000     0.00000000     0.00000000
    340      3      O           0.00000000     0.00000000     0.00000000
    341      3      O           0.00000000     0.00000000     0.00000000
    342      3      O           0.00000000     0.00000000     0.00000000
    343      3      O           0.00000000     0.00000000     0.00000000
    344      3      O           0.00000000     0.00000000     0.00000000
    345      3      O           0.00000000     0.00000000     0.00000000
    346      3      O           0.00000000     0.00000000     0.00000000
    347      3      O           0.00000000     0.00000000     0.00000000
    348      3      O           0.00000000     0.00000000     0.00000000
    349      3      O           0.00000000     0.00000000     0.00000000
    350      3      O           0.00000000     0.00000000     0.00000000
    351      3      O           0.00000000     0.00000000     0.00000000
    352      3      O           0.00000000     0.00000000     0.00000000
    353      3      O           0.00000000     0.00000000     0.00000000
    354      3      O           0.00000000     0.00000000     0.00000000
    355      3      O           0.00000000     0.00000000     0.00000000
    356      3      O           0.00000000     0.00000000     0.00000000
    357      3      O           0.00000000     0.00000000     0.00000000
    358      3      O           0.00000000     0.00000000     0.00000000
    359      3      O           0.00000000     0.00000000     0.00000000
    360      3      O           0.00000000     0.00000000     0.00000000
    361      3      O           0.00000000     0.00000000     0.00000000
    362      3      O           0.00000000     0.00000000     0.00000000
    363      3      O           0.00000000     0.00000000     0.00000000
    364      3      O           0.00000000     0.00000000     0.00000000
    365      3      O           0.00000000     0.00000000     0.00000000
    366      3      O           0.00000000     0.00000000     0.00000000
    367      3      O           0.00000000     0.00000000     0.00000000
    368      3      O           0.00000000     0.00000000     0.00000000
    369      3      O           0.00000000     0.00000000     0.00000000
    370      3      O           0.00000000     0.00000000     0.00000000
    371      3      O           0.00000000     0.00000000     0.00000000
    372      3      O           0.00000000     0.00000000     0.00000000
    373      3      O           0.00000000     0.00000000     0.00000000
    374      3      O           0.00000000     0.00000000     0.00000000
    375      3      O           0.00000000     0.00000000     0.00000000
    376      3      O           0.00000000     0.00000000     0.00000000
    377      3      O           0.00000000     0.00000000     0.00000000
    378      3      O           0.00000000     0.00000000     0.00000000
    379      3      O           0.00000000     0.00000000     0.00000000
    380      3      O           0.00000000     0.00000000     0.00000000
    381      3      O           0.00000000     0.00000000     0.00000000
[...]
 flops   399 x   288 x   662         913317358464       0.0%    100.0%      0.0%
 flops   416 x   271 x   683         924446248128       0.0%    100.0%      0.0%
 flops   399 x   288 x   683         942289661376       0.0%    100.0%      0.0%
 flops    13 x    15 x    13         949405376010       0.0%    100.0%      0.0%
 flops   416 x   288 x   143         959696584704       0.0%    100.0%      0.0%
 flops   416 x   271 x   160        1010403164160       0.0%    100.0%      0.0%
 flops   399 x   288 x   160        1029905694720       0.0%    100.0%      0.0%
 flops  2025 x   256 x   662        1224469094400       0.0%    100.0%      0.0%
 flops  2038 x   256 x   662        1232329883648       0.0%    100.0%      0.0%
 flops  2025 x   256 x   683        1263311769600       0.0%    100.0%      0.0%
 flops  2038 x   256 x   683        1271421919232       0.0%    100.0%      0.0%
 flops  2033 x   271 x   662        1301336181088       0.0%    100.0%      0.0%
 flops   399 x   256 x   128        1302004236288       0.0%    100.0%      0.0%
 flops  2033 x   271 x   683        1342617238192       0.0%    100.0%      0.0%
 flops  2025 x   288 x   143        1356044976000       0.0%    100.0%      0.0%
 flops  2038 x   288 x   143        1364750449920       0.0%    100.0%      0.0%
 flops  2025 x   271 x   160        1427693040000       0.0%    100.0%      0.0%
 flops  2038 x   271 x   160        1436858476800       0.0%    100.0%      0.0%
 flops  2033 x   256 x   143        1613513707520       0.0%    100.0%      0.0%
 flops   416 x   256 x   662        1692854452224       0.0%    100.0%      0.0%
 flops   416 x   256 x   683        1746555273216       0.0%    100.0%      0.0%
 flops   416 x   256 x   160        1908953579520       0.0%    100.0%      0.0%
 flops  2025 x   288 x   662        2066291596800       0.0%    100.0%      0.0%
 flops  2038 x   288 x   662        2079556678656       0.0%    100.0%      0.0%
 flops  2025 x   288 x   683        2131838611200       0.0%    100.0%      0.0%
 flops  2038 x   288 x   683        2145524488704       0.0%    100.0%      0.0%
 flops   416 x   271 x   128        2155526750208       0.0%    100.0%      0.0%
 flops   399 x   288 x   128        2197132148736       0.0%    100.0%      0.0%
 flops   399 x   271 x   675        2336754193200       0.0%    100.0%      0.0%
 flops    13 x    13 x   143        2336987083860       0.0%    100.0%      0.0%
 flops  2033 x   256 x   662        2458613006336       0.0%    100.0%      0.0%
 flops  2033 x   256 x   683        2536605261824       0.0%    100.0%      0.0%
 flops  2025 x   256 x   160        2697338880000       0.0%    100.0%      0.0%
 flops  2038 x   256 x   160        2714655129600       0.0%    100.0%      0.0%
 flops  2033 x   288 x   143        2722804381440       0.0%    100.0%      0.0%
 flops   416 x   288 x   662        2856691888128       0.0%    100.0%      0.0%
 flops  2033 x   271 x   160        2866666617600       0.0%    100.0%      0.0%
 flops   416 x   288 x   683        2947312023552       0.0%    100.0%      0.0%
 flops  2025 x   271 x   128        3045745152000       0.0%    100.0%      0.0%
 flops  2038 x   271 x   128        3065298083840       0.0%    100.0%      0.0%
 flops   416 x   288 x   160        3221359165440       0.0%    100.0%      0.0%
 flops   416 x   256 x   128        4072434302976       0.0%    100.0%      0.0%
 flops  2033 x   288 x   662        4148909448192       0.0%    100.0%      0.0%
 flops  2033 x   288 x   683        4280521379328       0.0%    100.0%      0.0%
 flops   399 x   256 x   675        4414827110400       0.0%    100.0%      0.0%
 flops  2025 x   288 x   160        4551759360000       0.0%    100.0%      0.0%
 flops  2038 x   288 x   160        4580980531200       0.0%    100.0%      0.0%
 flops  2025 x   271 x   675        5286678840000       0.0%    100.0%      0.0%
 flops  2038 x   271 x   675        5320618012800       0.0%    100.0%      0.0%
 flops  2033 x   256 x   160        5415990067200       0.0%    100.0%      0.0%
 flops    13 x    32 x     5        5489268507840       0.0%    100.0%      0.0%
 flops     5 x    32 x    13        5489268507840       0.0%    100.0%      0.0%
 flops  2025 x   256 x   128        5754322944000       0.0%    100.0%      0.0%
 flops  2038 x   256 x   128        5791264276480       0.0%    100.0%      0.0%
 flops  2033 x   271 x   128        6115555450880       0.0%    100.0%      0.0%
 flops   416 x   288 x   128        6872232886272       0.0%    100.0%      0.0%
 flops   416 x   271 x   675        7308945446400       0.0%    100.0%      0.0%
 flops   399 x   288 x   675        7450020748800       0.0%    100.0%      0.0%
 flops    13 x    13 x   160        7844432169600       0.0%    100.0%      0.0%
 flops  2033 x   288 x   160        9139483238400       0.0%    100.0%      0.0%
 flops  2025 x   288 x   128        9710419968000       0.0%    100.0%      0.0%
 flops  2038 x   288 x   128        9772758466560       0.0%    100.0%      0.0%
 flops  2025 x   256 x   675        9988116480000       0.0%    100.0%      0.0%
 flops  2038 x   256 x   675       10052237721600       0.0%    100.0%      0.0%
 flops  2033 x   271 x   675       10615128969600       0.0%    100.0%      0.0%
 flops  2033 x   256 x   128       11554112143360       0.0%    100.0%      0.0%
 flops   416 x   256 x   675       13808782540800       0.0%    100.0%      0.0%
 flops    13 x    13 x   128       16734788628480       0.0%    100.0%      0.0%
 flops  2025 x   288 x   675       16854946560000       0.0%    100.0%      0.0%
 flops  2038 x   288 x   675       16963151155200       0.0%    100.0%      0.0%
 flops  2033 x   288 x   128       19497564241920       0.0%    100.0%      0.0%
 flops  2033 x   256 x   675       20055151411200       0.0%    100.0%      0.0%
 flops   416 x   288 x   675       23302320537600       0.0%    100.0%      0.0%
 flops  2033 x   288 x   675       33843068006400       0.0%    100.0%      0.0%
 flops    13 x    32 x    13      103295304909888       0.0%    100.0%      0.0%
 flops inhomo. stacks              48359303860320     100.0%      0.0%      0.0%
 flops total                       577.389845E+12       8.4%     91.6%      0.0%
 flops max/rank                     25.328067E+12       8.4%     91.6%      0.0%
 matmuls inhomo. stacks                    138864     100.0%      0.0%      0.0%
 matmuls total                        13540989388       0.0%    100.0%      0.0%
 number of processed stacks              18566301       0.7%     99.3%      0.0%
 average stack size                                     1.0     734.8       0.0
 marketing flops                   975.112598E+12
 -------------------------------------------------------------------------------
 # multiplications                          11294
 max memory usage/rank             894.459904E+06
 # max total images/rank                        3
 # max 3D layers                                1
 # MPI messages exchanged                 5150064
 MPI messages size (bytes):
  total size                         9.225491E+12
  min size                           0.000000E+00
  max size                          11.347584E+06
  average size                       1.791335E+06
 MPI breakdown and total messages size (bytes):
             size <=      128               29256                        0
       128 < size <=     8192                   0                        0
      8192 < size <=    32768                1104                 36175872
     32768 < size <=   131072                 552                 21727824
    131072 < size <=  4194304             4905072            6867147202672
   4194304 < size <= 16777216              214080            2357757270880
  16777216 < size                               0                        0
 -------------------------------------------------------------------------------

 *** WARNING in dbcsr_mm.F:295 :: Using a non-square number of MPI ranks ***
 *** might lead to poor performance. Used ranks: 24 Suggested: 25 49     ***

 -------------------------------------------------------------------------------
 -                                                                             -
 -                      DBCSR MESSAGE PASSING PERFORMANCE                      -
 -                                                                             -
 -------------------------------------------------------------------------------
 ROUTINE             CALLS      AVE VOLUME [Bytes]
 MP_Group             1344
 MP_Bcast              142                     12.
 MP_Allreduce        57138                    123.
 MP_Alltoall         50779                 765816.
 MP_Wait            632464
 MP_ISend           520876                 807784.
 MP_IRecv           512234                 813873.
 MP_Memory         1041898
 -------------------------------------------------------------------------------

 MEMORY| Estimated peak process memory [MiB]                                 854

 -------------------------------------------------------------------------------
 -                                                                             -
 -                         MESSAGE PASSING PERFORMANCE                         -
 -                                                                             -
 -------------------------------------------------------------------------------

 ROUTINE             CALLS      AVE VOLUME [Bytes]
 MP_Group                5
 MP_Bcast            35640                 237369.
 MP_Allreduce        94106                   1245.
 MP_Sync                 5
 MP_Alltoall         13735               33925088.
 MP_SendRecv          4048                  16266.
 MP_ISendRecv        85836                 127093.
 MP_Wait            169455
 MP_ISend            74644                 804683.
 MP_IRecv            74644                 804850.
 MP_Recv              5967                1411742.
 -------------------------------------------------------------------------------


 -------------------------------------------------------------------------------
 -                                                                             -
 -                           R E F E R E N C E S                               -
 -                                                                             -
 -------------------------------------------------------------------------------
 
 CP2K version 7.1, the CP2K developers group (2019).
 CP2K is freely available from https://www.cp2k.org/ .

 Schuett, Ole; Messmer, Peter; Hutter, Juerg; VandeVondele, Joost. 
 Electronic Structure Calculations on Graphics Processing Units, John
 Wiley & Sons, Ltd, 173-190 (2016). 
 GPU-Accelerated Sparse Matrix-Matrix Multiplication for
 Linear Scaling Density Functional Theory.
 https://dx.doi.org/10.1002/9781118670712.ch8

 Borstnik, U; VandeVondele, J; Weber, V; Hutter, J. 
 PARALLEL COMPUTING, 40 (5-6), 47-58 (2014). 
 Sparse matrix multiplication: The distributed block-compressed sparse
 row library.
 https://dx.doi.org/10.1016/j.parco.2014.03.012

 Hutter, J; Iannuzzi, M; Schiffmann, F; VandeVondele, J. 
 WIREs Comput Mol Sci., 4 (1), 15-25 (2014). 
 CP2K: atomistic simulations of condensed matter systems.
 https://dx.doi.org/10.1002/wcms.1159

 Grimme, S; Ehrlich, S; Goerigk, L. 
 JOURNAL OF COMPUTATIONAL CHEMISTRY, 32, 1456 (2011). 
 Effect of the damping function in dispersion corrected density functional theory.
 https://dx.doi.org/10.1002/jcc.21759

 Grimme, S; Antony, J; Ehrlich, S; Krieg, H. 
 JOURNAL OF CHEMICAL PHYSICS, 132 (15), 154104 (2010). 
 A consistent and accurate ab initio parametrization of density
 functional dispersion correction (DFT-D) for the 94 elements H-Pu.
 https://dx.doi.org/10.1063/1.3382344

 VandeVondele, J; Hutter, J. 
 JOURNAL OF CHEMICAL PHYSICS, 127 (11), 114105 (2007). 
 Gaussian basis sets for accurate calculations on molecular systems in
 gas and condensed phases.
 https://dx.doi.org/10.1063/1.2770708

 Krack, M. 
 THEORETICAL CHEMISTRY ACCOUNTS, 114 (1-3), 145-152 (2005). 
 Pseudopotentials for H to Kr optimized for gradient-corrected
 exchange-correlation functionals.
 https://dx.doi.org/10.1007/s00214-005-0655-y

 VandeVondele, J; Krack, M; Mohamed, F; Parrinello, M; Chassaing, T;
 Hutter, J. COMPUTER PHYSICS COMMUNICATIONS, 167 (2), 103-128 (2005). 
 QUICKSTEP: Fast and accurate density functional calculations using a
 mixed Gaussian and plane waves approach.
 https://dx.doi.org/10.1016/j.cpc.2004.12.014

 Frigo, M; Johnson, SG. 
 PROCEEDINGS OF THE IEEE, 93 (2), 216-231 (2005). 
 The design and implementation of FFTW3.
 https://dx.doi.org/10.1109/JPROC.2004.840301

 Kolafa, J. 
 JOURNAL OF COMPUTATIONAL CHEMISTRY, 25 (3), 335-342 (2004). 
 Time-reversible always stable predictor-corrector method for molecular dynamics of polarizable molecules.
 https://dx.doi.org/10.1002/jcc.10385

 VandeVondele, J; Hutter, J. 
 JOURNAL OF CHEMICAL PHYSICS, 118 (10), 4365-4369 (2003). 
 An efficient orbital transformation method for electronic structure
 calculations.
 https://dx.doi.org/10.1063/1.1543154

 Hartwigsen, C; Goedecker, S; Hutter, J. 
 PHYSICAL REVIEW B, 58 (7), 3641-3662 (1998). 
 Relativistic separable dual-space Gaussian pseudopotentials from H to Rn.
 https://dx.doi.org/10.1103/PhysRevB.58.3641

 Lippert, G; Hutter, J; Parrinello, M. 
 MOLECULAR PHYSICS, 92 (3), 477-487 (1997). 
 A hybrid Gaussian and plane wave density functional scheme.
 https://dx.doi.org/10.1080/002689797170220

 Perdew, JP; Burke, K; Ernzerhof, M. 
 PHYSICAL REVIEW LETTERS, 77 (18), 3865-3868 (1996). 
 Generalized gradient approximation made simple.
 https://dx.doi.org/10.1103/PhysRevLett.77.3865

 Goedecker, S; Teter, M; Hutter, J. 
 PHYSICAL REVIEW B, 54 (3), 1703-1710 (1996). 
 Separable dual-space Gaussian pseudopotentials.
 https://dx.doi.org/10.1103/PhysRevB.54.1703


 -------------------------------------------------------------------------------
 -                                                                             -
 -                                T I M I N G                                  -
 -                                                                             -
 -------------------------------------------------------------------------------
 SUBROUTINE                       CALLS  ASD         SELF TIME        TOTAL TIME
                                MAXIMUM       AVERAGE  MAXIMUM  AVERAGE  MAXIMUM
 CP2K                                 1  1.0    0.018    0.019 7950.178 7950.187
 cp_geo_opt                           1  2.0    0.000    0.000 7948.859 7948.867
 geoopt_bfgs                          1  3.0    0.249    0.279 7948.859 7948.867
 cp_eval_at                          45  4.0    0.010    0.077 7917.856 7917.924
 qs_forces                           44  5.0    0.014    0.016 7843.057 7843.067
 qs_energies                         45  6.0    0.004    0.005 7504.065 7504.327
 scf_env_do_scf                      45  7.0    0.003    0.004 7206.475 7206.526
 scf_env_do_scf_inner_loop          755  8.0    0.028    0.062 5628.649 5636.956
 rebuild_ks_matrix                  799  9.8    0.004    0.004 2832.020 2836.012
 qs_ks_build_kohn_sham_matrix       799 10.8    0.101    0.116 2832.016 2836.008
 qs_ks_update_qs_env                801  9.0    0.006    0.006 2520.239 2523.928
 dbcsr_multiply_generic           11294 13.7    0.854    0.915 1977.670 1999.043
 qs_scf_new_mos                     755  9.0    0.005    0.011 1897.280 1906.495
 qs_scf_loop_do_ot                  755 10.0    0.005    0.007 1897.275 1906.491
 ot_scf_mini                        755 11.0    0.025    0.034 1771.195 1774.653
 multiply_cannon                  11294 14.7    2.199    2.432 1642.476 1696.590
 init_scf_loop                       46  8.0    0.002    0.003 1567.786 1567.863
 qs_rho_update_rho                  800  9.0    0.005    0.007 1501.721 1505.082
 calculate_rho_elec                 800 10.0 1030.254 1088.001 1501.717 1505.078
 multiply_cannon_multrec         135528 15.7 1394.854 1462.575 1394.978 1462.688
 sum_up_and_integrate               444 11.7    2.194    2.250 1366.005 1366.199
 integrate_v_rspace                 444 12.7 1168.491 1183.129 1363.810 1364.065
 prepare_preconditioner              46  9.0    0.000    0.001 1306.067 1307.053
 make_preconditioner                 46 10.0    0.001    0.002 1257.950 1258.496
 make_full_all                       46 11.0    0.077    0.105 1215.482 1215.576
 qs_vxc_create                      799 11.8    0.014    0.016 1203.910 1204.545
 pw_transfer                      13280 13.3    1.014    1.119 1128.176 1139.459
 fft_wrap_pw1pw2                  11682 14.4    0.143    0.157 1111.076 1122.433
 fft_wrap_pw1pw2_180               6706 15.6   94.255   95.916 1070.762 1081.169
 ot_mini                            755 12.0    0.005    0.007 1056.071 1063.550
 cp_fm_syevd                        692 13.8    0.012    0.018  920.700  923.427
 cp_fm_syevd_base                   692 14.8  920.687  923.415  920.687  923.415
 xc_rho_set_and_dset_create         799 13.8    6.672    6.760  853.266  867.651
 fft3d_ps                         11682 16.4  460.860  476.797  834.593  846.941
 xc_vxc_pw_create                   444 12.7   21.939   24.166  818.830  819.461
 apply_preconditioner_dbcsr         446 14.0    0.001    0.002  606.919  616.018
 apply_all                          446 15.0    1.107    1.167  606.918  616.017
 ot_new_cg_direction                400 13.0    0.007    0.009  557.619  557.643
 qs_ot_get_derivative               400 13.0    0.004    0.006  492.819  498.161
 density_rs2pw                      800 11.0    0.053    0.066  425.269  457.196
 xc_functional_eval                 799 14.8    0.008    0.011  388.661  403.008
 pbe_lda_eval                       799 15.8  388.652  403.000  388.652  403.000
 xc_exc_calc                        355 13.0    1.498    1.510  385.065  385.082
 qs_ot_get_p                        801 11.9    0.005    0.007  303.154  317.265
 qs_ks_update_qs_env_forces          44  6.0    0.000    0.000  314.764  315.147
 rs_pw_transfer                    6309 13.0    0.092    0.114  216.984  250.562
 x_to_yz                           5861 18.1  177.807  180.087  241.779  246.178
 mp_waitall_1                    727275 17.1  216.806  242.494  216.806  242.494
 qs_ot_get_orbitals                 755 12.0    0.005    0.006  226.603  230.422
 init_scf_run                        45  7.0    0.001    0.002  224.288  224.302
 scf_env_initial_rho_setup           45  8.0    0.000    0.001  224.287  224.301
 make_m2s                         22588 14.7    0.827    0.920  220.822  223.419
 wfi_extrapolate                     45  9.0    0.007    0.010  219.941  219.956
 qs_ot_get_derivative_diag          254 14.0    0.008    0.009  212.127  216.309
 cp_gemm                            740 10.2    0.003    0.004  206.914  207.792
 cp_gemm_fm_gemm                    740 11.2    0.003    0.004  206.911  207.789
 cp_fm_gemm                         740 12.2  206.909  207.786  206.909  207.786
 qs_ot_p2m_diag                     510 13.0    7.472    8.047  167.503  168.723
 potential_pw2rs                    444 13.7    0.164    0.237  163.754  164.023
 multiply_cannon_metrocomm3      135528 15.7    0.341    0.379  139.660  161.478
 -------------------------------------------------------------------------------

 The number of warnings for this run is : 2
 
 -------------------------------------------------------------------------------
  **** **** ******  **  PROGRAM ENDED AT                 2022-07-05 21:18:49.162
 ***** ** ***  *** **   PROGRAM RAN ON             node1598.palmetto.clemson.edu
 **    ****   ******    PROGRAM RAN BY                                   xiutinc
 ***** **    ** ** **   PROGRAM PROCESS ID                               4172081
  **** **  *******  **  PROGRAM STOPPED IN  /scratch1/xiutinc/CP2K-5305509.pbs02
