LAMMPS data file via write_data, version 5 May 2020, timestep = 5000000

4761 atoms
16 atom types
2400 bonds
1 bond types
1200 angles
1 angle types

0.0000000000000000e+00 2.4433001000000001e+01 xlo xhi
0.0000000000000000e+00 2.4433001000000001e+01 ylo yhi
0.0000000000000000e+00 8.6882897779454566e+01 zlo zhi

Masses

1 15.999
2 1.008
3 47.867
4 28.085
5 15.999
6 15.999
7 15.999
8 15.999
9 1.008
10 1.008
11 12.011
12 1.008
13 15.999
14 1.008
15 15.999
16 15.999

Pair Coeffs # lj/cut/coul/long/omp

1 0.1521 3.1507     # O_H_TIP3PCHARMM
2 0.046 0.4         # H_O_TIP3PCHARMM
3 0.6076 1.958      #
4 0.044 2.3         #
5 0.105 3.3         #
6 0.3321 2.875      #
7 0.17 3.12
8 0.17 3.12
9 0 0
10 0 0
11 0.066 3.5
12 0.03 2.5
13 0.17 3.12
14 0 0
15 0.17 3.07
16 0.14 2.9

Bond Coeffs # harmonic/omp

1 450 0.9572

Angle Coeffs # harmonic/omp

1 55 104.52

Atoms # full

4138 1 5 -9.6457999999999999e-01 4.2464900000000085e+00 1.8617700000000108e+00 6.0742735898605815e-01 0 0 0
4175 1 5 -9.6454099999999998e-01 1.8617699999999966e+00 4.2464900000000121e+00 6.0742735898604749e-01 0 0 0
3669 1 4 1.8454459999999999e+00 3.0435700000000017e+00 8.8983000000000889e-01 1.1414873589860619e+00 0 0 0
3744 1 4 1.8453040000000001e+00 5.2184309999999998e+00 3.0647000000000055e+00 1.1414973589860473e+00 0 0 0
3762 1 4 1.8452059999999999e+00 3.0646700000000022e+00 5.2184700000000079e+00 1.1415073589860505e+00 0 0 0
3792 1 4 1.8454010000000001e+00 8.8982000000000561e-01 3.0435900000000076e+00 1.1414873589860655e+00 0 0 0
4328 1 5 -8.8965099999999997e-01 1.7804399999999969e+00 1.7804400000000098e+00 1.6407763589860593e+00 0 0 0
4360 1 5 -8.8955300000000004e-01 4.3278000000000016e+00 4.3278110000000085e+00 1.6407763589860520e+00 0 0 0
4185 1 5 -9.1061599999999998e-01 7.9300000000001716e-02 6.0289600000000103e+00 3.4116673589860524e+00 0 0 0
4210 1 5 -9.1065499999999999e-01 6.0289600000000014e+00 7.9290000000012739e-02 3.4116763589860586e+00 0 0 0
892 1 1 -8.3399999999999996e-01 3.5368281995729940e+00 2.0459529287530964e+00 4.9901646473082382e+00 -14 -12 2
3570 1 2 4.1699999999999998e-01 1.3963585724907621e-01 2.7546126477103805e-01 3.3266597062464953e+00 0 -4 1
1398 1 2 4.1699999999999998e-01 1.2583082335160860e+00 3.8427932642800901e-02 4.7301539222760667e+00 2 -2 1
3701 1 4 1.8451780000000000e+00 9.1729810000000072e+00 1.2884100000000096e+00 7.4292735898605500e-01 0 0 0
4342 1 5 -8.8970499999999997e-01 1.0436081000000005e+01 1.7877600000000042e+00 1.6334673589860600e+00 0 0 0
4117 1 5 -9.6448999999999996e-01 7.9700000000000069e+00 7.5442000000000697e-01 1.7147773589860580e+00 0 0 0
4016 1 5 -9.2557800000000001e-01 6.1082610000000042e+00 2.5495000000000099e+00 2.4025373589860552e+00 0 0 0
3640 1 4 1.8450599999999999e+00 6.9980910000000067e+00 1.2884200000000097e+00 2.9177873589860557e+00 0 0 0
3730 1 4 1.8455649999999999e+00 1.1326731000000009e+01 1.2884400000000031e+00 2.8966473589860615e+00 0 0 0
4157 1 5 -9.6457800000000005e-01 1.0354721000000005e+01 7.5442000000000520e-01 4.0994973589860582e+00 0 0 0
4305 1 5 -8.8973500000000005e-01 7.8887100000000068e+00 1.7877600000000093e+00 4.1808373589860519e+00 0 0 0
3705 1 4 1.8455500000000000e+00 9.1518510000000095e+00 1.2884700000000040e+00 5.0715273589860530e+00 0 0 0
776 1 1 -8.3399999999999996e-01 9.6091514407156744e+00 4.7609169451437028e+00 3.9426110450599814e+00 -4 -2 4
2752 1 2 4.1699999999999998e-01 9.9395067655755955e+00 5.5807709460897605e+00 4.3099482492602208e+00 -4 -2 4
2751 1 2 4.1699999999999998e-01 8.6578065025491799e+00 4.8664886688638385e+00 3.9372010827684583e+00 -4 -2 4
209 1 1 -8.3399999999999996e-01 1.0963236535583681e+01 5.2188816857903957e+00 1.6152132636603866e+00 6 -11 2
548 1 1 -8.3399999999999996e-01 7.1438129485027986e+00 5.7475017520227061e+00 3.5507977244931932e+00 -4 -2 0
1618 1 2 4.1699999999999998e-01 1.0626057559751695e+01 4.7852643724094062e+00 2.3991253818528961e+00 6 -11 2
1394 1 2 4.1699999999999998e-01 1.1542042394026016e+01 4.4012082599178468e+00 4.1328153556276788e-02 4 -8 1
2295 1 2 4.1699999999999998e-01 6.2285239173964770e+00 5.8169423111078489e+00 3.8221937916816522e+00 -4 -2 0
1617 1 2 4.1699999999999998e-01 1.1316538459748662e+01 6.0495585896902870e+00 1.9336241006348698e+00 6 -11 2
3572 1 2 4.1699999999999998e-01 6.0212497236990847e+00 1.1899369167585178e+01 3.1834532705926564e+00 6 -1 0
3678 1 4 1.8452670000000000e+00 1.2884200000000003e+00 9.1730110000000131e+00 7.4297635898605918e-01 0 0 0
4325 1 5 -8.8975199999999999e-01 1.7877600000000022e+00 1.0436091000000014e+01 1.6334763589860515e+00 0 0 0
4091 1 5 -9.6447099999999997e-01 7.5442000000000153e-01 7.9699900000000161e+00 1.7147663589860644e+00 0 0 0
3992 1 5 -9.2559899999999995e-01 2.5494900000000040e+00 6.1082610000000139e+00 2.4025473589860531e+00 0 0 0
3611 1 4 1.8451050000000000e+00 1.2884200000000026e+00 6.9981510000000116e+00 2.9178373589860520e+00 0 0 0
3665 1 4 1.8454390000000001e+00 1.2884700000000020e+00 1.1326741000000018e+01 2.8967073589860557e+00 0 0 0
4135 1 5 -9.6460299999999999e-01 7.5440999999999658e-01 1.0354711000000014e+01 4.0994873589860585e+00 0 0 0
4279 1 5 -8.8974500000000001e-01 1.7877600000000005e+00 7.8887200000000126e+00 4.1808473589860551e+00 0 0 0
3674 1 4 1.8455680000000001e+00 1.2884800000000034e+00 9.1518910000000169e+00 5.0716273589860581e+00 0 0 0
189 1 1 -8.3399999999999996e-01 5.3095808014519603e+00 1.0219809302465633e+01 4.7190554378756533e-01 3 1 0
1467 1 2 4.1699999999999998e-01 4.7750655194093756e+00 9.2959616368228897e+00 2.0498140446492594e+00 -4 -12 2
29 1 1 -8.3399999999999996e-01 4.5416053550327948e+00 6.2569428832636955e+00 4.5703390149113527e+00 12 -3 1
1257 1 2 4.1699999999999998e-01 3.8797561047543452e+00 6.8338040220703027e+00 4.1890010606418411e+00 12 -3 1
134 1 1 -8.3399999999999996e-01 4.4154651507238629e+00 8.9952861946277416e+00 2.8843880080810891e+00 -4 -12 2
3571 1 2 4.1699999999999998e-01 5.9633383003104035e+00 1.1727590498998284e+01 1.6804451143819295e+00 6 -1 0
1468 1 2 4.1699999999999998e-01 4.8712032659319906e+00 9.5178603055493962e+00 3.5442750531085143e+00 -4 -12 2
2296 1 2 4.1699999999999998e-01 7.2294625041585396e+00 6.3746564227356943e+00 2.8327636197791963e+00 -5 -2 0
3161 1 2 4.1699999999999998e-01 9.8388211782340296e+00 1.1592772452563000e+01 4.9933191065576671e-01 -10 -6 1
1340 1 2 4.1699999999999998e-01 1.1690093938957510e+01 7.3087085197996098e+00 4.2788929575029657e+00 4 6 1
70 1 1 -8.3399999999999996e-01 1.0926787163502587e+01 7.0669345044005700e+00 4.8034307855848182e+00 4 6 1
913 1 1 -8.3399999999999996e-01 6.9689957367224498e+00 7.7011880439803235e+00 1.3223227311927832e+00 -8 4 0
1253 1 2 4.1699999999999998e-01 6.6261631082969128e+00 9.8971440509841990e+00 4.5026113894867539e+00 11 -5 1
2779 1 2 4.1699999999999998e-01 1.1754427654094563e+01 1.1744220844274073e+01 2.3722580564493825e+00 -3 0 1
2548 1 2 4.1699999999999998e-01 9.8006732745237670e+00 8.3681836644968968e+00 3.6132703837323166e+00 -16 -11 1
674 1 1 -8.3399999999999996e-01 9.6485275336908529e+00 9.0554237679127905e+00 2.9645913024796213e+00 -16 -11 1
2547 1 2 4.1699999999999998e-01 8.9434879124623770e+00 8.7142440860366559e+00 2.4143664606278046e+00 -15 -11 1
1599 1 2 4.1699999999999998e-01 7.5666083480453592e+00 7.5525759396054237e+00 4.3056837846839713e+00 4 2 2
2780 1 2 4.1699999999999998e-01 1.0498850326308558e+01 1.0959210549485325e+01 2.6871859677098744e+00 -3 0 1
27 1 1 -8.3399999999999996e-01 6.1757059492820181e+00 1.0739954368804721e+01 4.5573010291781531e+00 11 -5 1
200 1 1 -8.3399999999999996e-01 7.4843172175730972e+00 8.2874463524241779e+00 4.9134875985008399e+00 4 2 2
790 1 1 -8.3399999999999996e-01 1.0825600540492948e+01 1.1680791824923119e+01 2.1497972844576365e+00 -3 0 1
2411 1 2 4.1699999999999998e-01 9.3665266721100764e+00 1.0146262884553567e+01 4.9059592237504512e+00 -3 -5 3
3025 1 2 4.1699999999999998e-01 7.1867530180737980e+00 8.3070844111160564e+00 6.1401264558975477e-01 -8 4 0
3282 1 2 4.1699999999999998e-01 1.1264327124107750e+01 9.4370113603920860e+00 4.6390045401200380e-01 -5 -1 -1
3026 1 2 4.1699999999999998e-01 6.1346861858160775e+00 7.3132872054300524e+00 1.0583296955619694e+00 -8 4 0
1041 1 1 -8.3399999999999996e-01 1.1640967073239244e+01 8.6442331365715397e+00 8.1962160490855029e-02 -5 -1 -1
1752 1 2 4.1699999999999998e-01 3.9541658368815700e+00 1.5433938419759052e+00 8.7362876636079143e+00 -6 2 0
1258 1 2 4.1699999999999998e-01 4.0705565522265887e+00 5.7608678636160686e+00 5.2398570762500034e+00 12 -3 1
276 1 1 -8.3399999999999996e-01 4.8884833888610579e+00 1.5227390863939985e+00 8.9433044040048735e+00 -5 2 0
2641 1 2 4.1699999999999998e-01 1.9106163076584579e+00 8.3222552798666316e-01 7.7173976574680063e+00 -7 4 0
1325 1 2 4.1699999999999998e-01 6.3809249154679093e-01 3.5310277590218719e+00 6.5699297472480591e+00 -11 -1 2
2642 1 2 4.1699999999999998e-01 1.3211193989514582e+00 9.8123515223851532e-01 9.1038264158052495e+00 -7 4 0
1751 1 2 4.1699999999999998e-01 5.3227029214623922e+00 1.7164136964114107e+00 8.1125364595978198e+00 -5 2 0
3489 1 2 4.1699999999999998e-01 2.7760203051778354e+00 4.6014984359978319e+00 7.2313403786099517e+00 3 -9 1
63 1 1 -8.3399999999999996e-01 1.1855093287079632e+00 3.9297197161646746e+00 5.8934599664730776e+00 -11 -1 2
3490 1 2 4.1699999999999998e-01 2.7654806512152397e+00 3.7941187467309314e+00 8.5119348143555378e+00 3 -9 1
1145 1 1 -8.3399999999999996e-01 3.3552484125380739e+00 4.1617633045120117e+00 7.8537226139627787e+00 3 -9 1
2983 1 2 4.1699999999999998e-01 3.1996103812097640e+00 2.9118023622908273e+00 5.2199922790344591e+00 -14 -12 2
798 1 1 -8.3399999999999996e-01 5.8790705958633120e+00 2.1238607321995686e+00 6.1943724005928908e+00 3 3 2
721 1 1 -8.3399999999999996e-01 2.1373444961478030e+00 1.0801528099288058e+00 8.6137001913802518e+00 -7 4 0
2796 1 2 4.1699999999999998e-01 5.0233049036878494e+00 2.1826111852031689e+00 5.7695838601435883e+00 3 3 2
3141 1 2 4.1699999999999998e-01 5.0131002918792547e+00 4.1702737345710714e+00 8.0234572545161580e+00 -5 -1 2
971 1 1 -8.3399999999999996e-01 5.9701888906018974e+00 4.1780738979859349e+00 8.0358025964925606e+00 -5 -1 2
2984 1 2 4.1699999999999998e-01 2.8826985315743512e+00 1.4355683933017047e+00 5.3304247192429939e+00 -14 -12 2
1326 1 2 4.1699999999999998e-01 5.9021382497941299e-01 4.0758396304989928e+00 5.1582701550937706e+00 -11 -1 2
99 1 1 -8.3399999999999996e-01 1.7704874940431898e+00 1.5756150791533752e-02 5.5384794936887731e+00 1 -2 1
2795 1 2 4.1699999999999998e-01 6.4613633496756355e+00 1.7837489431880444e+00 5.5150411505147092e+00 3 3 2
2137 1 2 4.1699999999999998e-01 7.7535920914482164e+00 4.0667463574731428e+00 9.6524235513336905e+00 -1 3 1
469 1 1 -8.3399999999999996e-01 7.9035935280026068e+00 3.2187457635756451e+00 1.0070306788690793e+01 -1 3 1
3142 1 2 4.1699999999999998e-01 6.2239886511147162e+00 3.5359906895035453e+00 7.3728194418642001e+00 -5 -1 2
2138 1 2 4.1699999999999998e-01 7.7111027260412470e+00 2.5769485686510438e+00 9.3867312816780490e+00 -1 3 1
4071 1 5 -9.2579800000000001e-01 9.6669810000000052e+00 5.3290705182007522e-15 8.5108073589860567e+00 0 0 0
4240 1 5 -9.1054000000000002e-01 1.2137201000000008e+01 3.5586500000000054e+00 5.8819773589860525e+00 0 0 0
4059 1 5 -9.2569400000000002e-01 9.6670110000000076e+00 2.5495400000000026e+00 5.9612873589860538e+00 0 0 0
4245 1 5 -9.1084399999999999e-01 8.6578410000000048e+00 7.9290000000003871e-02 6.0405573589860513e+00 0 0 0
3698 1 4 1.8449110000000000e+00 1.0928071000000008e+01 3.0649000000000051e+00 6.8511973589860533e+00 0 0 0
4154 1 5 -9.6435599999999999e-01 1.1462081000000003e+01 1.8617700000000108e+00 7.8229873589860563e+00 0 0 0
4341 1 5 -8.8968100000000006e-01 1.0428741000000004e+01 4.3278700000000097e+00 7.7417873589860573e+00 0 0 0
3778 1 4 1.8450730000000000e+00 1.0928131000000002e+01 5.2188800000000084e+00 9.0048573589860545e+00 0 0 0
3737 1 4 1.8451510000000000e+00 1.0928081000000006e+01 8.8995000000000613e-01 9.0259373589860559e+00 0 0 0
4156 1 5 -9.6443599999999996e-01 1.1462091000000006e+01 4.2465100000000087e+00 1.0207667358986052e+01 0 0 0
2710 1 2 4.1699999999999998e-01 6.5127236777021213e+00 5.9769940540632227e+00 7.5275472278900608e+00 -3 4 2
348 1 1 -8.3399999999999996e-01 2.1615035510515854e+00 6.2295626614262689e+00 9.8177753822226617e+00 7 -2 0
1896 1 2 4.1699999999999998e-01 2.7844856540493752e+00 6.6412826627216512e+00 9.2189333507088786e+00 7 -2 0
1895 1 2 4.1699999999999998e-01 1.4930639208190710e+00 6.8985009795407537e+00 9.9659031181931326e+00 7 -2 0
2709 1 2 4.1699999999999998e-01 5.8012219532592590e+00 6.3173108859070162e+00 6.2353224260250242e+00 -3 4 2
1859 1 2 4.1699999999999998e-01 3.2848160859537812e+00 8.0807296084957194e+00 7.2751017758891079e+00 11 2 0
330 1 1 -8.3399999999999996e-01 3.5307487766720174e+00 7.5718938607166129e+00 8.0476528301200414e+00 11 2 0
4143 1 5 -9.6347499999999997e-01 4.2464600000000070e+00 1.1461651000000012e+01 1.0207477358986059e+01 0 0 0
4042 1 5 -9.2576700000000001e-01 2.5495400000000012e+00 9.6670210000000125e+00 5.9612573589860549e+00 0 0 0
3658 1 4 1.8458319999999999e+00 8.8982999999999990e-01 1.0928021000000017e+01 9.0257573589860591e+00 0 0 0
4130 1 5 -9.6465699999999999e-01 1.8616700000000042e+00 1.1462161000000016e+01 7.8228673589860582e+00 0 0 0
4196 1 5 -9.1091699999999998e-01 7.9260000000001454e-02 8.6578210000000109e+00 6.0405073589860585e+00 0 0 0
4227 1 5 -9.1046600000000000e-01 3.5586700000000016e+00 1.2137191000000012e+01 5.8819573589860514e+00 0 0 0
4333 1 5 -8.8989099999999999e-01 4.3277600000000040e+00 1.0428601000000016e+01 7.7416573589860569e+00 0 0 0
3759 1 4 1.8452080000000000e+00 5.2186700000000057e+00 1.0928101000000012e+01 9.0047273589860506e+00 0 0 0
3681 1 4 1.8453340000000000e+00 3.0648500000000038e+00 1.0928101000000012e+01 6.8512973589860611e+00 0 0 0
1860 1 2 4.1699999999999998e-01 4.4715800184495906e+00 7.4256898548703267e+00 7.9492007833298306e+00 11 2 0
4320 1 5 -8.9057799999999998e-01 1.7800100000000063e+00 1.0427861000000021e+01 1.0288287358986048e+01 0 0 0
3597 1 2 4.1699999999999998e-01 1.1389380649407414e+01 9.8852085186020116e+00 6.7086277540683463e+00 -1 8 0
1017 1 1 -8.3399999999999996e-01 9.9537190663725159e+00 8.5243637652543143e+00 7.4051471414141004e+00 -9 10 1
3234 1 2 4.1699999999999998e-01 9.7304996530807237e+00 9.2754669337179791e+00 6.8553754128426538e+00 -9 10 1
1254 1 2 4.1699999999999998e-01 6.6958271405221526e+00 1.1250222698171491e+01 5.1780521909111172e+00 11 -5 1
4018 1 5 -9.2552199999999996e-01 9.6670310000000086e+00 6.1083610000000084e+00 9.5202173589860557e+00 0 0 0
606 1 1 -8.3399999999999996e-01 9.0268223474024243e+00 1.0441960268451506e+01 5.7505868756201357e+00 -3 -5 3
4235 1 5 -9.1134099999999996e-01 6.1877200000000085e+00 1.2136411000000011e+01 8.5099973589860589e+00 0 0 0
755 1 1 -8.3399999999999996e-01 6.2405047275116496e+00 6.7176036578614049e+00 6.9856744624236118e+00 -3 4 2
4040 1 5 -9.2603999999999997e-01 6.1082510000000036e+00 9.6668410000000069e+00 9.5199173589860564e+00 0 0 0
4048 1 5 -9.2660699999999996e-01 8.6588510000000039e+00 1.2215501000000014e+01 9.5195673589860554e+00 0 0 0
4307 1 5 -8.8985099999999995e-01 7.8889710000000077e+00 7.8886710000000084e+00 1.0281817358986057e+01 0 0 0
1600 1 2 4.1699999999999998e-01 7.2686246993422117e+00 7.8814770727851711e+00 5.7530693497945657e+00 4 2 2
1339 1 2 4.1699999999999998e-01 1.1207418915570422e+01 7.1963095783045974e+00 5.7093776624820975e+00 4 6 1
4293 1 5 -8.8982399999999995e-01 1.0436671000000008e+01 1.0436071000000007e+01 1.0283357358986057e+01 0 0 0
4005 1 5 -9.2532199999999998e-01 1.2216491000000001e+01 8.6581500000000062e+00 9.5213273589860528e+00 0 0 0
4248 1 5 -9.1094500000000000e-01 1.2137201000000008e+01 6.1877810000000117e+00 8.5108073589860567e+00 0 0 0
3233 1 2 4.1699999999999998e-01 9.1933433695168265e+00 7.9463676213033487e+00 7.3420512064201180e+00 -9 10 1
1199 1 1 -8.3399999999999996e-01 1.1884370095722925e+01 9.9179219423595182e+00 5.8900026168029749e+00 -1 8 0
2412 1 2 4.1699999999999998e-01 9.5076695630982275e+00 1.1249187297819477e+01 5.9333499032299164e+00 -3 -5 3
4234 1 5 -9.1069699999999998e-01 6.0290110000000068e+00 6.0288500000000127e+00 1.4619047358986061e+01 0 0 0
4191 1 5 -9.1069800000000001e-01 7.9210000000001557e-02 7.9370000000009738e-02 1.4619118358986050e+01 0 0 0
1680 1 2 4.1699999999999998e-01 2.5751712869611993e+00 6.0960259902220058e+00 1.2823515326579001e+01 -2 -4 0
449 1 1 -8.3399999999999996e-01 3.1047250738966383e+00 3.3526345954328667e+00 1.4197287610573449e+01 3 -11 0
2098 1 2 4.1699999999999998e-01 2.1955687057440749e+00 3.6409405015281728e+00 1.4116378790494014e+01 3 -11 0
2097 1 2 4.1699999999999998e-01 3.5078610250018287e+00 3.5930099332309617e+00 1.3363061660053351e+01 3 -11 0
362 1 1 -8.3399999999999996e-01 3.8767221046940539e+00 5.2491060484180139e+00 1.1990713939780289e+01 8 -7 2
1924 1 2 4.1699999999999998e-01 3.2452516147702579e+00 5.3554042637167729e+00 1.1279252378662266e+01 8 -7 2
1923 1 2 4.1699999999999998e-01 4.3930998455202017e+00 4.4828660492975239e+00 1.1740789683892356e+01 8 -7 2
2397 1 2 4.1699999999999998e-01 3.9940229760761303e+00 1.1735361256077721e+00 1.3314223645419013e+01 -2 -5 2
2398 1 2 4.1699999999999998e-01 4.0379082212541793e+00 1.2930413800963343e+00 1.1805685357880490e+01 -2 -5 2
853 1 1 -8.3399999999999996e-01 5.1320302798590252e+00 2.7922771094212937e+00 1.1267029829320284e+01 -5 1 2
599 1 1 -8.3399999999999996e-01 3.9465233725588322e+00 6.5351579749940891e-01 1.2512005168573380e+01 -2 -5 2
3151 1 2 4.1699999999999998e-01 9.0337569184077238e-01 1.1228253955355409e+00 1.2465586753579984e+01 5 -15 -1
3152 1 2 4.1699999999999998e-01 2.3028125425202179e+00 8.6279016345624215e-01 1.1949977046205481e+01 5 -15 -1
976 1 1 -8.3399999999999996e-01 1.4208086211407964e+00 1.0965289047611229e+00 1.1660724343518860e+01 5 -15 -1
2906 1 2 4.1699999999999998e-01 4.9643297157014370e+00 2.4115041627577765e+00 1.0404985559127256e+01 -5 1 2
2905 1 2 4.1699999999999998e-01 6.0817913058961048e+00 2.7376544495837094e+00 1.1372870247817575e+01 -5 1 2
3036 1 2 4.1699999999999998e-01 1.4982724555008600e-01 5.0435456954115345e+00 1.2235787340274289e+01 0 -2 1
2028 1 2 4.1699999999999998e-01 9.0526300963454709e+00 7.8649997809663141e-01 1.3781876774464150e+01 -14 3 0
414 1 1 -8.3399999999999996e-01 9.6134452553591121e+00 5.1917879125668698e-01 1.4510064647242080e+01 -14 3 0
3702 1 4 1.8456360000000001e+00 1.0928151000000009e+01 3.0437800000000061e+00 1.1179607358986056e+01 0 0 0
4211 1 5 -9.1080200000000000e-01 8.6580110000000019e+00 6.0292010000000094e+00 1.1990107358986053e+01 0 0 0
4060 1 5 -9.2578600000000000e-01 9.6669809999999998e+00 3.5587000000000053e+00 1.2069527358986058e+01 0 0 0
4239 1 5 -9.1105400000000003e-01 1.2137181000000002e+01 2.5495600000000054e+00 1.2148827358986056e+01 0 0 0
4058 1 5 -9.2567299999999997e-01 1.2216411000000006e+01 3.5585700000000022e+00 1.4619108358986056e+01 0 0 0
4334 1 5 -8.8982700000000003e-01 7.8887610000000050e+00 4.3204500000000099e+00 1.3849798358986058e+01 0 0 0
3699 1 4 1.8450770000000001e+00 9.1519510000000039e+00 4.8201600000000093e+00 1.2959017358986056e+01 0 0 0
4155 1 5 -9.6457000000000004e-01 1.0354721000000005e+01 5.3538600000000081e+00 1.3931277358986058e+01 0 0 0
4343 1 5 -8.8985700000000001e-01 1.0428741000000004e+01 1.7804400000000060e+00 1.0289117358986054e+01 0 0 0
3684 1 4 1.8449610000000001e+00 6.9983900000000041e+00 4.8199200000000131e+00 1.5112827358986060e+01 0 0 0
3347 1 2 4.1699999999999998e-01 7.7171206044685174e+00 8.2179728216741033e-01 1.1959075288711212e+01 -1 -3 0
1754 1 2 4.1699999999999998e-01 7.0834316662468693e+00 1.2555718976593468e+00 1.4840392475185643e+01 1 -3 2
1074 1 1 -8.3399999999999996e-01 7.8361750497576814e+00 1.3481070795412622e+00 1.2749680039639649e+01 -1 -4 0
3781 1 4 1.8447320000000000e+00 1.1327181000000007e+01 4.8203210000000070e+00 1.5134047358986052e+01 0 0 0
3348 1 2 4.1699999999999998e-01 8.4161464001373361e+00 2.0598882150062896e+00 1.2479064663720177e+01 -1 -3 0
240 1 1 -8.3399999999999996e-01 1.6502970198843161e+00 6.2898018571308896e+00 1.2976126973552972e+01 -2 -4 0
1679 1 2 4.1699999999999998e-01 1.5306694284621416e+00 7.1750779050267468e+00 1.2632313953195979e+01 -2 -4 0
4195 1 5 -9.1142800000000002e-01 2.5462800000000030e+00 1.2133431000000012e+01 1.2146617358986056e+01 0 0 0
4045 1 5 -9.2717000000000005e-01 3.5580800000000057e+00 9.6661710000000163e+00 1.2068817358986056e+01 0 0 0
3677 1 4 1.8474349999999999e+00 3.0432500000000045e+00 1.0926701000000012e+01 1.1178217358986057e+01 0 0 0
4332 1 5 -8.9050700000000005e-01 4.3200600000000051e+00 7.8879210000000146e+00 1.3849758358986056e+01 0 0 0
4145 1 5 -9.6462499999999995e-01 5.3519100000000082e+00 1.0351521000000011e+01 1.3928747358986053e+01 0 0 0
4230 1 5 -9.1130800000000001e-01 6.0291110000000092e+00 8.6572410000000080e+00 1.1989448358986049e+01 0 0 0
3680 1 4 1.8466009999999999e+00 4.8189610000000043e+00 9.1497610000000140e+00 1.2956997358986053e+01 0 0 0
3711 1 4 1.8451830000000000e+00 4.8199200000000042e+00 6.9979510000000120e+00 1.5112488358986056e+01 0 0 0
3756 1 4 1.8405650000000000e+00 4.8136700000000054e+00 1.1323361000000007e+01 1.5127168358986053e+01 0 0 0
4140 1 5 -9.6520499999999998e-01 7.9701710000000032e+00 1.0354811000000007e+01 1.1314907358986058e+01 0 0 0
4105 1 5 -9.6496599999999999e-01 1.0355691000000007e+01 7.9706510000000108e+00 1.1315677358986054e+01 0 0 0
3625 1 4 1.8466680000000000e+00 1.1329771000000003e+01 9.1747610000000055e+00 1.0785337358986059e+01 0 0 0
3643 1 4 1.8457680000000001e+00 9.1527510000000056e+00 6.9991100000000053e+00 1.0781307358986050e+01 0 0 0
3672 1 4 1.8458079999999999e+00 6.9985100000000022e+00 9.1521010000000125e+00 1.0780758358986056e+01 0 0 0
3741 1 4 1.8466380000000000e+00 9.1734910000000074e+00 1.1327971000000009e+01 1.0782617358986053e+01 0 0 0
4010 1 5 -9.2555699999999996e-01 0.0000000000000000e+00 2.5494700000000141e+00 1.5628258358986052e+01 0 0 0
3618 1 4 1.8453250000000001e+00 3.0646000000000009e+00 8.9046000000000813e-01 1.6889018358986053e+01 0 0 0
3694 1 4 1.8449730000000000e+00 8.8971000000000100e-01 3.0649800000000109e+00 1.6889208358986060e+01 0 0 0
3623 1 4 1.8453020000000000e+00 3.0436800000000046e+00 5.2185800000000082e+00 1.6889168358986055e+01 0 0 0
3740 1 4 1.8453660000000001e+00 5.2187110000000052e+00 3.0440100000000090e+00 1.6889298358986061e+01 0 0 0
4291 1 5 -8.8966100000000004e-01 1.7804800000000012e+00 4.3277900000000065e+00 1.6389978358986060e+01 0 0 0
4286 1 5 -8.8985499999999995e-01 4.3279499999999977e+00 1.7804700000000100e+00 1.6390048358986057e+01 0 0 0
4103 1 5 -9.6421100000000004e-01 4.2463700000000033e+00 4.2464100000000116e+00 1.7423368358986057e+01 0 0 0
4098 1 5 -9.6428999999999998e-01 1.8616600000000008e+00 1.8617800000000051e+00 1.7423398358986056e+01 0 0 0
1442 1 2 4.1699999999999998e-01 1.1799797877702471e+01 2.4482303325460402e+00 1.9104118194759074e+01 -10 -5 0
1645 1 2 4.1699999999999998e-01 1.0755516646125429e+01 4.2894089893503123e-01 1.8035386116651587e+01 -1 -8 3
2027 1 2 4.1699999999999998e-01 9.0039839474809149e+00 2.2362551833286579e-01 1.5186405549866253e+01 -14 3 0
121 1 1 -8.3399999999999996e-01 1.1894503793961350e+01 3.1084111114923889e+00 1.9790721405790929e+01 -10 -5 0
277 1 1 -8.3399999999999996e-01 7.2445359531955189e+00 6.0917120319537055e-01 1.5527737653617910e+01 1 -3 2
3703 1 4 1.8460270000000001e+00 9.1732610000000054e+00 4.8194700000000124e+00 1.7287258358986055e+01 0 0 0
4047 1 5 -9.2576400000000003e-01 6.1082800000000033e+00 3.5587100000000049e+00 1.5628148358986058e+01 0 0 0
4146 1 5 -9.6360400000000002e-01 7.9700210000000027e+00 5.3534310000000076e+00 1.6315838358986060e+01 0 0 0
4344 1 5 -8.8991399999999998e-01 1.0436251000000007e+01 4.3202100000000074e+00 1.6396888358986054e+01 0 0 0
4623 1 5 -9.1232700000000000e-01 9.6681810000000059e+00 6.0275410000000100e+00 1.8256388358986054e+01 0 0 0
4442 1 5 -9.2594900000000002e-01 8.6577500000000036e+00 3.5584600000000095e+00 1.8177578358986054e+01 0 0 0
3891 1 4 1.8452880000000000e+00 7.3966800000000088e+00 3.0443300000000044e+00 1.9067378358986058e+01 0 0 0
4241 1 5 -9.1113800000000000e-01 6.1875200000000037e+00 2.5494600000000016e+00 1.8098508358986056e+01 0 0 0
4682 1 5 -8.8990800000000003e-01 7.8960410000000101e+00 1.7804300000000064e+00 1.9958028358986056e+01 0 0 0
223 1 1 -8.3399999999999996e-01 1.1712442168987868e+01 4.5025455528963132e-01 1.8026953572683833e+01 -1 -8 3
4528 1 5 -9.6458299999999997e-01 6.8626100000000072e+00 4.2462200000000090e+00 2.0039758358986060e+01 0 0 0
4003 1 5 -9.2573700000000003e-01 3.5588099999999994e+00 6.1082610000000113e+00 1.5628278358986055e+01 0 0 0
3453 1 2 4.1699999999999998e-01 8.0706207381142192e-01 6.3736517468175347e+00 1.5378700312043254e+01 -15 -6 -1
4197 1 5 -9.1083599999999998e-01 2.5492900000000027e+00 6.1875300000000069e+00 1.8098178358986058e+01 0 0 0
4609 1 5 -9.1389100000000001e-01 6.0298300000000022e+00 9.6678010000000132e+00 1.8258358358986055e+01 0 0 0
3676 1 4 1.8434649999999999e+00 4.8189000000000046e+00 9.1732210000000123e+00 1.7285908358986056e+01 0 0 0
4425 1 5 -9.2530299999999999e-01 3.5592400000000013e+00 8.6576410000000124e+00 1.8178078358986053e+01 0 0 0
4142 1 5 -9.6260999999999997e-01 5.3539500000000029e+00 7.9699210000000082e+00 1.6315918358986060e+01 0 0 0
4662 1 5 -8.8995400000000002e-01 1.7803700000000013e+00 7.8961200000000140e+00 1.9958208358986056e+01 0 0 0
3870 1 4 1.8456459999999999e+00 3.0433600000000034e+00 7.3961200000000087e+00 1.9067548358986055e+01 0 0 0
4331 1 5 -8.9061199999999996e-01 4.3187400000000018e+00 1.0435811000000019e+01 1.6396657358986058e+01 0 0 0
1127 1 1 -8.3399999999999996e-01 8.2051109027672972e-02 6.9776238836491293e+00 1.5539350809544215e+01 -15 -6 -1
2029 1 2 4.1699999999999998e-01 2.7566236074592738e+00 1.1498398392945470e+01 1.8856335142417500e+01 -2 -9 1
4524 1 5 -9.6589000000000003e-01 4.2450600000000032e+00 6.8604610000000124e+00 2.0039198358986056e+01 0 0 0
4731 1 5 -8.9143899999999998e-01 1.0426051000000003e+01 7.8872500000000096e+00 1.9961798358986055e+01 0 0 0
4544 1 5 -9.5109500000000002e-01 1.0356821000000004e+01 1.0350111000000007e+01 1.8938878358986059e+01 0 0 0
3981 1 4 1.8457910000000000e+00 9.1627410000000022e+00 6.9905710000000125e+00 1.9464878358986056e+01 0 0 0
4517 1 5 -9.6063799999999999e-01 7.9007710000000086e+00 7.8938700000000122e+00 1.8931138358986058e+01 0 0 0
3909 1 4 1.8431050000000000e+00 1.1325481000000002e+01 9.1486610000000059e+00 1.9467158358986055e+01 0 0 0
3859 1 4 1.8334230000000000e+00 6.9842210000000069e+00 9.1393210000000096e+00 1.9467828358986058e+01 0 0 0
3976 1 4 1.7951980000000001e+00 9.1299610000000033e+00 1.1287071000000006e+01 1.9490438358986054e+01 0 0 0
4707 1 5 -8.9491799999999999e-01 7.8931900000000059e+00 1.0363751000000008e+01 2.0023828358986059e+01 0 0 0
4518 1 5 -9.6454600000000001e-01 4.2465199999999985e+00 1.8617300000000034e+00 2.5040448358986048e+01 0 0 0
4555 1 5 -9.6476899999999999e-01 1.8617500000000080e+00 4.2463900000000114e+00 2.5040498358986056e+01 0 0 0
3878 1 4 1.8479509999999999e+00 7.3970510000000074e+00 5.2179800000000087e+00 2.1243018358986060e+01 0 0 0
3828 1 4 1.8454640000000000e+00 7.3969900000000059e+00 8.9081000000001087e-01 2.1221278358986059e+01 0 0 0
3895 1 4 1.8451709999999999e+00 7.3966410000000051e+00 3.0649800000000096e+00 2.3396368358986052e+01 0 0 0
4443 1 5 -9.2541499999999999e-01 8.6577210000000004e+00 2.5493500000000009e+00 2.4286079358986058e+01 0 0 0
4624 1 5 -9.1068300000000002e-01 6.1874200000000039e+00 3.5585500000000083e+00 2.4365428358986051e+01 0 0 0
4622 1 5 -9.1022599999999998e-01 9.6672610000000070e+00 7.9460000000013409e-02 2.4206788358986053e+01 0 0 0
4494 1 5 -9.6458900000000003e-01 6.8626010000000051e+00 1.8615100000000115e+00 2.2424498358986060e+01 0 0 0
4716 1 5 -8.9023300000000005e-01 7.8959300000000026e+00 4.3271500000000094e+00 2.2506108358986054e+01 0 0 0
4431 1 5 -9.2599100000000001e-01 8.6604210000000048e+00 6.1046310000000101e+00 2.0732308358986060e+01 0 0 0
3231 1 2 4.1699999999999998e-01 1.1764981813985363e+01 3.5870279076758100e+00 2.3322218267478785e+01 -4 -3 0
573 1 1 -8.3399999999999996e-01 1.1066969556776449e+01 2.3129443407982833e+00 2.2140287056860100e+01 -8 -3 0
3232 1 2 4.1699999999999998e-01 1.1378031474278240e+01 4.5630743064837214e+00 2.4412859386497573e+01 -4 -3 0
1016 1 1 -8.3399999999999996e-01 1.2126588699117839e+01 4.2598356446729415e+00 2.3899108247336390e+01 -4 -3 0
2346 1 2 4.1699999999999998e-01 1.1191334508775929e+01 2.7283880037900627e+00 2.1286957251536176e+01 -8 -3 0
2345 1 2 4.1699999999999998e-01 1.1521122506763104e+01 1.4735354912302336e+00 2.2067008683746245e+01 -8 -3 0
3446 1 2 4.1699999999999998e-01 5.7760498586343907e+00 1.1217119691809055e+01 2.3908920351641004e+01 0 -4 -1
1584 1 2 4.1699999999999998e-01 9.6854023158920111e-01 1.1243136075143761e+01 2.1396798200102342e+01 6 -1 2
3805 1 4 1.8452260000000000e+00 8.8971000000000100e-01 7.3966610000000141e+00 2.1221238358986056e+01 0 0 0
3899 1 4 1.8468210000000000e+00 5.2137510000000020e+00 7.3906910000000110e+00 2.1245518358986057e+01 0 0 0
4613 1 5 -9.1065700000000005e-01 7.9210000000005124e-02 9.6669610000000112e+00 2.4206698358986049e+01 0 0 0
3866 1 4 1.8447819999999999e+00 3.0633800000000049e+00 7.3961710000000114e+00 2.3397178358986057e+01 0 0 0
4612 1 5 -9.1102300000000003e-01 3.5584400000000054e+00 6.1872100000000145e+00 2.4365648358986054e+01 0 0 0
4424 1 5 -9.2520899999999995e-01 2.5491900000000012e+00 8.6579010000000167e+00 2.4286288358986059e+01 0 0 0
4710 1 5 -8.9019199999999998e-01 4.3260710000000024e+00 7.8951210000000112e+00 2.2507178358986053e+01 0 0 0
4474 1 5 -9.6473799999999998e-01 1.8612499999999970e+00 6.8623810000000098e+00 2.2424378358986051e+01 0 0 0
4418 1 5 -9.2141099999999998e-01 6.0975510000000046e+00 8.6540110000000112e+00 2.0735198358986054e+01 0 0 0
4376 1 5 -9.2577600000000004e-01 3.5527136788005009e-15 8.6578310000000105e+00 2.1736528358986053e+01 0 0 0
192 1 1 -8.3399999999999996e-01 4.9872474134733230e-01 1.2074620820832200e+01 2.1461128281687834e+01 6 0 2