LAMMPS data file via write_data, version 5 May 2020, timestep = 5000000

4761 atoms
16 atom types
2400 bonds
1 bond types
1200 angles
1 angle types

0.0000000000000000e+00 2.4433001000000001e+01 xlo xhi
0.0000000000000000e+00 2.4433001000000001e+01 ylo yhi
0.0000000000000000e+00 8.6882897779454566e+01 zlo zhi

Masses

1      15.999    # O_HOH
2       1.008    # H_HOH
3      47.867    # Ti_FAU
4      28.085    # Si_FAU
5      15.999    # O_FAU
6      15.999    # O_FAU
7      15.999    # O_FAU
8      15.999    # O_FAU
9       1.008    # H_FAU
10      1.008    # H_FAU
11     12.011    # C_ADS
12      1.008    # H_ADS
13     15.999    # O_ADS
14      1.008    # H_ADS
15     15.999    # O_unknown
16     15.999    # O_unknown

Pair Coeffs # lj/cut/coul/long/omp

1      0.1521    3.1507    # O_HOH
2      0.0460    0.4000    # H_HOH
3      0.6076    1.9580    # Ti_FAU
4      0.0440    2.3000    # Si_FAU
5      0.1050    3.3000    # O_FAU
6      0.3321    2.8750    # O_FAU
7      0.1700    3.1200    # O_FAU
8      0.1700    3.1200    # O_FAU
9      0.0000    0.0000    # H_FAU
10     0.0000    0.0000    # H_FAU
11     0.0660    3.5000    # C_ADS
12     0.0300    2.5000    # H_ADS
13     0.1700    3.1200    # O_ADS
14     0.0000    0.0000    # H_ADS
15     0.1700    3.0700    # O_unknown
16     0.1400    2.9000    # O_unknown

Bond Coeffs # harmonic/omp

1 450 0.9572

Angle Coeffs # harmonic/omp

1 55 104.52

Atoms # full

1     1     1        -0.834000   21.057456   23.064780   23.447124    -1  -8   1  # O_HOH
2     2     1        -0.834000   22.757889    4.581742   49.848734    -1  11  -1  # O_HOH
3     3     1        -0.834000    0.699806   23.335706   75.737058   -11   0   1  # O_HOH
4     4     1        -0.834000   19.208447    4.273099   22.148323    -3   1   0  # O_HOH
5     5     1        -0.834000    1.406558    4.100661   58.275038     4  -4   1  # O_HOH
6     6     1        -0.834000    2.497046   14.530259   41.019801     3  -9   1  # O_HOH
7     7     1        -0.834000    6.880362   17.216230   82.163499     5   2  -1  # O_HOH
8     8     1        -0.834000    7.826811   22.769259   53.063505     4   4  -1  # O_HOH
9     9     1        -0.834000    1.268816    0.016022   34.816883     4   2   1  # O_HOH
10    10    1        -0.834000    9.610791   18.762152   16.344809    -3  -5   1  # O_HOH
11    11    1        -0.834000   18.048356   20.208403   24.904715   -12 -11   0  # O_HOH
12    12    1        -0.834000   10.102213    6.137980   25.258398    -8   1   2  # O_HOH
13    13    1        -0.834000   22.655309   14.830383   49.780848   -17   1  -1  # O_HOH
14    14    1        -0.834000   23.815578   15.125135   44.847630     1   4   1  # O_HOH
15    15    1        -0.834000   12.308680   16.028795   55.522087   -11  -4  -1  # O_HOH
16    16    1        -0.834000   11.153497   16.458438   76.864878    -5 -15   0  # O_HOH
17    17    1        -0.834000    8.261539   17.688490   67.857898     2  -3  -1  # O_HOH
18    18    1        -0.834000   17.570199   22.245232   50.571347    -5  -9   0  # O_HOH
19    19    1        -0.834000   22.791631    5.993625   79.909759    -9   4  -1  # O_HOH
20    20    1        -0.834000   23.736019    2.513581   10.478999    -3   0   1  # O_HOH
21    21    1        -0.834000   20.053071   15.599835    9.524282    -3  -2   2  # O_HOH
22    22    1        -0.834000    9.531466   13.117546   26.695813     2  -5   2  # O_HOH
23    23    1        -0.834000    3.243182    8.037327   33.413869    -2   3   1  # O_HOH
24    24    1        -0.834000   17.597634    8.804409   77.500606     5  -4   0  # O_HOH
25    25    1        -0.834000   13.158126    9.589028   66.250553    -7  -9   0  # O_HOH
26    26    1        -0.834000   16.720899   13.231823   65.787388    -9  -2   1  # O_HOH
27    27    1        -0.834000    6.175706   10.739954    4.557301    11  -5   1  # O_HOH
28    28    1        -0.834000   12.280242   21.600022   47.022875     4  -5  -1  # O_HOH
29    29    1        -0.834000    4.541605    6.256943    4.570339    12  -3   1  # O_HOH
30    30    1        -0.834000   19.058823   22.053012   42.066312     5  -1   0  # O_HOH
31    31    1        -0.834000    7.756523    4.096404   71.373195     0   3   0  # O_HOH
32    32    1        -0.834000   20.228455   12.442232   44.195765    -8  -3  -1  # O_HOH
33    33    1        -0.834000   24.030260   12.717814   40.171464   -10  -1   1  # O_HOH
34    34    1        -0.834000   20.523272   15.310789   71.638269   -10   3   0  # O_HOH
35    35    1        -0.834000    4.771858   20.221076   44.659135   -10  -4   1  # O_HOH
36    36    1        -0.834000    8.502040   12.864182   75.161793   -14 -11  -1  # O_HOH
37    37    1        -0.834000   16.651765   11.217762   58.950835    -3 -20  -1  # O_HOH
38    38    1        -0.834000   13.748353   24.399634   57.790122    -9  -2   0  # O_HOH
39    39    1        -0.834000   18.001422   21.149002    1.007765    -8   8   0  # O_HOH
40    40    1        -0.834000   17.972072    4.215275   64.693448   -10  -7   1  # O_HOH
41    41    1        -0.834000    7.354550   21.547640   79.251253     5  -9   0  # O_HOH
42    42    1        -0.834000    8.683531   19.777687   19.341927   -14   5   1  # O_HOH
43    43    1        -0.834000   12.226756   17.518333   32.917701     0 -11   1  # O_HOH
44    44    1        -0.834000   10.156775    7.069049   30.439752    -4  -3   0  # O_HOH
45    45    1        -0.834000   18.454004   15.813233   62.433839     5 -11   0  # O_HOH
46    46    1        -0.834000    8.594437   18.490847   56.050513     4   6   1  # O_HOH
47    47    1        -0.834000   21.857350    2.021495   60.158206    -5   0   0  # O_HOH
48    48    1        -0.834000   17.758791    7.871124   65.618940     1  -5   0  # O_HOH
49    49    1        -0.834000   23.536926   11.151446   12.360050    -6  -1  -1  # O_HOH
50    50    1        -0.834000    6.831134    7.948523   50.155530     5  11   0  # O_HOH
51    51    1        -0.834000   12.834371   14.118332    5.344719     7   3   1  # O_HOH
52    52    1        -0.834000    5.196915   22.097181   50.491507     4   3   0  # O_HOH
53    53    1        -0.834000    6.526042    4.934907   28.779393   -10  13   0  # O_HOH
54    54    1        -0.834000   20.540639   18.121418   61.870179     0   6  -1  # O_HOH
55    55    1        -0.834000    3.728637    3.011813   32.401513     1 -11   1  # O_HOH
56    56    1        -0.834000    9.458230   20.751841   57.469596    -4   1  -1  # O_HOH
57    57    1        -0.834000   19.479242   11.143651   11.002876    -8  -3   1  # O_HOH
58    58    1        -0.834000   14.278025   11.309003   48.560321    -6  -1  -1  # O_HOH
59    59    1        -0.834000   16.143004   12.412770    8.551579    -5  -9   2  # O_HOH
60    60    1        -0.834000    9.052756    1.289338   61.276181    -6  -7   0  # O_HOH
61    61    1        -0.834000    4.528369    8.510661   59.103588    -3   0  -1  # O_HOH
62    62    1        -0.834000   17.330519   23.695755   21.125368     2  -7   1  # O_HOH
63    63    1        -0.834000    1.185509    3.929720    5.893460   -11  -1   2  # O_HOH
64    64    1        -0.834000   12.995313   12.755764   33.087329     5  -6   0  # O_HOH
65    65    1        -0.834000   21.910769    9.832928   10.210747     2 -17   0  # O_HOH
66    66    1        -0.834000   13.862413    7.176780   20.385240     1   0   1  # O_HOH
67    67    1        -0.834000   10.099175   15.929826   57.109766    -4   0   0  # O_HOH
68    68    1        -0.834000    4.840828    9.337097   46.066344     6 -18   2  # O_HOH
69    69    1        -0.834000   15.247721    4.872481   76.750748    -6   1   0  # O_HOH
70    70    1        -0.834000   10.926787    7.066935    4.803431     4   6   1  # O_HOH
71    71    1        -0.834000   15.915713    6.340670   23.399994    -1  -7   0  # O_HOH
72    72    1        -0.834000   17.461373   17.154788   70.882716   -11   5   0  # O_HOH
73    73    1        -0.834000   12.043092   20.210102   64.578538     1  -3  -1  # O_HOH
74    74    1        -0.834000    3.595872    0.678372   53.544808    -1   5   0  # O_HOH
75    75    1        -0.834000    9.996251   24.397168   64.218797   -11  -5  -1  # O_HOH
76    76    1        -0.834000    7.988837   20.006728   69.212614     6  -2   1  # O_HOH
77    77    1        -0.834000   18.221792   24.402150   65.990938    13  -9  -2  # O_HOH
78    78    1        -0.834000   24.371280    0.100162   49.283431    -3   2   0  # O_HOH
79    79    1        -0.834000   17.158687   21.618191   69.797494     0  -2   1  # O_HOH
80    80    1        -0.834000    7.917860    5.695436   43.401875    -6   8   1  # O_HOH
81    81    1        -0.834000   10.430689   22.255008   54.204040    12  10   0  # O_HOH
82    82    1        -0.834000   22.911065    4.584706   69.643759     2  -8   1  # O_HOH
83    83    1        -0.834000   18.625619   10.381031   45.549582    10 -10   1  # O_HOH
84    84    1        -0.834000    3.296107   20.240056   83.838689     0  -2   1  # O_HOH
85    85    1        -0.834000   20.813862   23.676022   48.505534    -6   9   1  # O_HOH
86    86    1        -0.834000    3.605018    2.475612   68.682343     2   9   0  # O_HOH
87    87    1        -0.834000   21.063090   21.181979   26.904380     3 -11   1  # O_HOH
88    88    1        -0.834000    2.249444   13.111604   58.434686    -2  -3  -1  # O_HOH
89    89    1        -0.834000   20.824825   12.837797   59.171599     7   4  -2  # O_HOH
90    90    1        -0.834000   13.566642   13.807251   70.698488    -3   5   0  # O_HOH
91    91    1        -0.834000   10.416274   16.266648   63.558731    -2  -2   0  # O_HOH
92    92    1        -0.834000   22.246621   14.709826   52.620175    -2   0   1  # O_HOH
93    93    1        -0.834000   17.453496   18.031172   34.299678     5 -14   0  # O_HOH
94    94    1        -0.834000    7.140312   10.318426   45.270943    -7  -4   0  # O_HOH
95    95    1        -0.834000    4.768407    7.587080   68.330742     4   5  -1  # O_HOH
96    96    1        -0.834000   14.310710    7.359522   43.688950     9   8   2  # O_HOH
97    97    1        -0.834000   11.919101    3.982406   86.150492     4  -8   0  # O_HOH
98    98    1        -0.834000   21.812094   12.369957   55.899471    -1   4   1  # O_HOH
99    99    1        -0.834000    1.770487    0.015756    5.538479     1  -2   1  # O_HOH
100   100   1        -0.834000   11.765422   11.714653   27.487772   -11   2   0  # O_HOH
101   101   1        -0.834000   11.704436   24.236956   72.479752    -7   1  -1  # O_HOH
102   102   1        -0.834000   22.734481   14.789567   56.854348    -9  -2   0  # O_HOH
103   103   1        -0.834000    8.850529    7.419898   78.132246     2   3  -1  # O_HOH
104   104   1        -0.834000    5.747397   14.764843   63.156221    12 -13   0  # O_HOH
105   105   1        -0.834000    3.010268    0.932849   29.637448    -1 -12   0  # O_HOH
106   106   1        -0.834000   20.626752    3.539583   75.364350     0   9   0  # O_HOH
107   107   1        -0.834000    4.745438   14.105221   59.845221     3   0   1  # O_HOH
108   108   1        -0.834000    7.443574   14.429582   70.771497     6  -7  -1  # O_HOH
109   109   1        -0.834000   17.178404   16.262512   47.528307     4   4  -1  # O_HOH
110   110   1        -0.834000   23.946046   11.437661   74.240865    -2   2  -2  # O_HOH
111   111   1        -0.834000    5.950403   17.824992   45.705861    -2   5   0  # O_HOH
112   112   1        -0.834000    1.655366   19.141818   70.086445    -9  -6   1  # O_HOH
113   113   1        -0.834000    8.078584   17.487738   79.156894   -13  -6   3  # O_HOH
114   114   1        -0.834000   12.656155   23.344079   70.020744     4 -11   0  # O_HOH
115   115   1        -0.834000   20.684429   10.485615   77.163106    -8   8  -1  # O_HOH
116   116   1        -0.834000    0.126643   18.055075   83.613466    -5 -11   0  # O_HOH
117   117   1        -0.834000    1.139063    4.481278   74.693150     0  -7  -2  # O_HOH
118   118   1        -0.834000   12.680240   18.460088    8.792205    -7  -8   2  # O_HOH
119   119   1        -0.834000    2.887318    5.324601   68.123830    -3   7   0  # O_HOH
120   120   1        -0.834000    0.974260   13.303607   16.889674     3 -17   0  # O_HOH
121   121   1        -0.834000   11.894504    3.108411   19.790721   -10  -5   0  # O_HOH
122   122   1        -0.834000   16.363238   17.092207   63.354275    -7   1   0  # O_HOH
123   123   1        -0.834000   17.220416    1.135502   68.308144    -4   2   1  # O_HOH
124   124   1        -0.834000    3.594764   21.901878   41.605865    -5  -7   1  # O_HOH
125   125   1        -0.834000   19.227389    4.732110   71.720873    -3   8  -2  # O_HOH
126   126   1        -0.834000   10.692641   17.789233   79.704481   -11   0   0  # O_HOH
127   127   1        -0.834000    2.314558    0.802597   61.547259     1 -11  -2  # O_HOH
128   128   1        -0.834000   23.356875   12.578903   15.078166    16   1   0  # O_HOH
129   129   1        -0.834000   17.738920   20.161342   54.534363    15 -10   0  # O_HOH
130   130   1        -0.834000   13.070765    9.398019   76.370158     2  -2   0  # O_HOH
131   131   1        -0.834000    3.360677   23.804167   65.928261    -3  -3   0  # O_HOH
132   132   1        -0.834000    8.264717   24.116582   79.963694    -6   0   1  # O_HOH
133   133   1        -0.834000    0.188920    2.098848   65.055074     6  12   1  # O_HOH
134   134   1        -0.834000    4.415465    8.995286    2.884388    -4 -12   2  # O_HOH
135   135   1        -0.834000    2.856893   12.643209   75.053570    -5  -2   0  # O_HOH
136   136   1        -0.834000   18.790297    1.131336   78.974781     5  -3  -1  # O_HOH
137   137   1        -0.834000   10.322944   21.304109   35.445089     7  -5   1  # O_HOH
138   138   1        -0.834000   15.594721    4.542187   73.970612   -14   1   0  # O_HOH
139   139   1        -0.834000   10.173122    7.628439   22.799668    -5  -1   1  # O_HOH
140   140   1        -0.834000   23.665824   11.643085   67.921248   -11  -6  -2  # O_HOH
141   141   1        -0.834000    2.331927   19.060720   59.060867    -2  -1  -1  # O_HOH
142   142   1        -0.834000    6.794392   15.227257   77.282230    -1  -3   1  # O_HOH
143   143   1        -0.834000   12.858967    3.224461   76.714285     0   5   0  # O_HOH
144   144   1        -0.834000   17.809819   19.540052   78.825419     6   2   0  # O_HOH
145   145   1        -0.834000   11.198971    6.504240   55.434173     7   4   1  # O_HOH
146   146   1        -0.834000   10.055440    6.546789   59.677161    -6   4   0  # O_HOH
147   147   1        -0.834000   22.633859   21.216087   65.141899    -5  -3  -1  # O_HOH
148   148   1        -0.834000    1.484461    9.962816   38.487984    -2   2   1  # O_HOH
149   149   1        -0.834000   20.931222   18.385464   54.063261    -6   2   1  # O_HOH
150   150   1        -0.834000   20.682494    6.612001   81.490942   -10   0   1  # O_HOH
151   151   1        -0.834000   21.569103   15.580179   61.050652     2  -7  -2  # O_HOH
152   152   1        -0.834000   22.169479    2.681839   64.611037     7  -3   1  # O_HOH
153   153   1        -0.834000   16.043901   10.053632   45.173946     3   1   0  # O_HOH
154   154   1        -0.834000    9.162456   17.332988   74.031623    -1  10  -2  # O_HOH
155   155   1        -0.834000    9.910462   10.546241   42.106262     8  -9   1  # O_HOH
156   156   1        -0.834000   22.612006   17.430749    3.704010     2  -3   2  # O_HOH
157   157   1        -0.834000   14.097587    3.997731   80.668771    -3  -8  -1  # O_HOH
158   158   1        -0.834000    6.895015    3.279651   74.146818    -4 -14   1  # O_HOH
159   159   1        -0.834000   11.838114   19.828396   41.216314    -2  -2   1  # O_HOH
160   160   1        -0.834000    2.695597    7.263583   53.247639    11  -6  -1  # O_HOH
161   161   1        -0.834000   20.611848   19.232713    6.259651     9 -10   2  # O_HOH
162   162   1        -0.834000    8.907602   17.310377   13.721771    11   0  -1  # O_HOH
163   163   1        -0.834000    6.879386    5.948986   63.486128     0  -2   0  # O_HOH
164   164   1        -0.834000   11.754941    8.211715   42.451542    -9 -12   1  # O_HOH
165   165   1        -0.834000   22.843298    0.522806    4.960111     4   9   2  # O_HOH
166   166   1        -0.834000   19.073823   19.722752   71.157789     8   3  -1  # O_HOH
167   167   1        -0.834000   20.826747    8.471294   79.095610    10   4   2  # O_HOH
168   168   1        -0.834000    9.953229   19.389283   37.712468    -2  -3   0  # O_HOH
169   169   1        -0.834000    9.650419   12.683070   29.365773    -3   2  -3  # O_HOH
170   170   1        -0.834000   12.416146   22.867912   19.700895    -4  -1   0  # O_HOH
171   171   1        -0.834000   15.507091   15.786348   55.038323     4  -2   3  # O_HOH
172   172   1        -0.834000   16.872273   22.405422   43.740254    -8   0  -1  # O_HOH
173   173   1        -0.834000   16.239232    3.918844   58.169884    -1 -15   0  # O_HOH
174   174   1        -0.834000    0.200372   11.019267   60.852530    -3  -1   0  # O_HOH
175   175   1        -0.834000    6.929088    6.534316   25.822758     1   5   0  # O_HOH
176   176   1        -0.834000   11.806798   19.228372   48.703501     4   6   0  # O_HOH
177   177   1        -0.834000   24.079542   10.127908   76.817287    -4  -7  -1  # O_HOH
178   178   1        -0.834000    4.446060   23.177267   46.140015    -1  -2   1  # O_HOH
179   179   1        -0.834000    6.840805   11.705291   29.940550    11   6   0  # O_HOH
180   180   1        -0.834000   16.915373    7.622228   70.609588     4  -8  -1  # O_HOH
181   181   1        -0.834000   16.864959    6.509556   82.644366    -1   2  -1  # O_HOH
182   182   1        -0.834000   21.253391    2.391342   46.206794    10  -1   1  # O_HOH
183   183   1        -0.834000   13.264146    4.824549   43.705953     2 -12   1  # O_HOH
184   184   1        -0.834000   24.239711   15.238551   18.445329    -8   4   1  # O_HOH
185   185   1        -0.834000   15.477870   13.693581   58.458694    -7   4   1  # O_HOH
186   186   1        -0.834000   19.739613   22.406218   61.940028     3   4   0  # O_HOH
187   187   1        -0.834000    9.535371    7.803119   41.120348     2   3  -1  # O_HOH
188   188   1        -0.834000   16.373042   13.762118   31.026329    -8   0  -1  # O_HOH
189   189   1        -0.834000    5.309581   10.219809    0.471906     3   1   0  # O_HOH
190   190   1        -0.834000   11.464157   23.479120   36.913018    -7  -4   1  # O_HOH
191   191   1        -0.834000   17.848317   14.644761   57.705345    -8   2   0  # O_HOH
192   192   1        -0.834000    0.498725   12.074621   21.461128     6   0   2  # O_HOH
193   193   1        -0.834000   18.959431   11.676787   63.048407     4 -14   1  # O_HOH
194   194   1        -0.834000   16.411119    5.795920   41.586105     1   6   0  # O_HOH
195   195   1        -0.834000    9.958407    5.643379   69.985104    -1   0  -1  # O_HOH
196   196   1        -0.834000   13.950172   15.889117   12.085351     0   4   0  # O_HOH
197   197   1        -0.834000   18.096923   22.475790   23.458729   -12 -10   1  # O_HOH
198   198   1        -0.834000    7.788955   11.063287   48.190500    -2  -7   0  # O_HOH
199   199   1        -0.834000   14.244524   16.387112   45.151319     1  -9   1  # O_HOH
200   200   1        -0.834000    7.484317    8.287446    4.913488     4   2   2  # O_HOH
201   201   1        -0.834000   12.963317   23.760212   77.763139    -5  -3   0  # O_HOH
202   202   1        -0.834000    8.540596    8.635202   26.260362     3  -7   0  # O_HOH
203   203   1        -0.834000   22.714729    0.629008   76.513993     3   5   0  # O_HOH
204   204   1        -0.834000   22.210203    3.156763   67.519691    -4  -7  -1  # O_HOH
205   205   1        -0.834000   10.944466    9.685019   52.924979     8  -3   0  # O_HOH
206   206   1        -0.834000   22.419285   23.451678   60.274401   -12  -7   2  # O_HOH
207   207   1        -0.834000    3.894903    5.616616   60.038890   -13  -1   1  # O_HOH
208   208   1        -0.834000   23.256182   11.537847   18.878040   -11  -8   1  # O_HOH
209   209   1        -0.834000   10.963237    5.218882    1.615213     6 -11   2  # O_HOH
210   210   1        -0.834000    1.059448   16.950970   20.325723    14   2   0  # O_HOH
211   211   1        -0.834000    3.430848    2.693569   76.082851     2  10   0  # O_HOH
212   212   1        -0.834000   11.566181   12.134874   72.330271     5  -3   0  # O_HOH
213   213   1        -0.834000    9.470989    6.979041   86.023417    -2   5   0  # O_HOH
214   214   1        -0.834000    9.901220   21.729210   72.289858     3  -3  -1  # O_HOH
215   215   1        -0.834000   23.407736    0.585419   79.551262    -1   9   1  # O_HOH
216   216   1        -0.834000    1.687158   22.002587   48.494288     8  -1   0  # O_HOH
217   217   1        -0.834000   15.095945   20.061869   56.783388    -1   2   0  # O_HOH
218   218   1        -0.834000   14.874244   20.903638   42.014997     3  -1   2  # O_HOH
219   219   1        -0.834000   17.344708    7.687453   14.469729    -2  -3   1  # O_HOH
220   220   1        -0.834000   12.953146   23.002906   41.773904     6  -3  -1  # O_HOH
221   221   1        -0.834000   20.850189    1.383674   52.628721    -4   9   0  # O_HOH
222   222   1        -0.834000   22.142613   14.247145   75.907843   -13   4  -3  # O_HOH
223   223   1        -0.834000   11.712442    0.450255   18.026954    -1  -8   3  # O_HOH
224   224   1        -0.834000   17.003460    3.209449   48.375004    -1   4  -1  # O_HOH
225   225   1        -0.834000   14.770264   15.536682   79.138104     0  -2   0  # O_HOH
226   226   1        -0.834000    2.043943   13.312399   23.505922     1  -5   2  # O_HOH
227   227   1        -0.834000    8.693942    0.529271   77.028003    -4   8   0  # O_HOH
228   228   1        -0.834000   12.612282   16.724191   47.859046     9   0   1  # O_HOH
229   229   1        -0.834000   20.283100    5.676925   39.562968     3   1  -1  # O_HOH
230   230   1        -0.834000    6.439243    4.522738   49.162290    -4  -9   0  # O_HOH
231   231   1        -0.834000   11.975215    8.065516   61.367112    -6 -19   0  # O_HOH
232   232   1        -0.834000   16.485145    8.351095   39.234454   -16  -3   2  # O_HOH
233   233   1        -0.834000   17.920267   17.419220   55.763038     0   3   0  # O_HOH
234   234   1        -0.834000   10.468709   20.369981   70.042678    -8   8   0  # O_HOH
235   235   1        -0.834000   18.883595    7.702917   46.133104   -11 -11  -1  # O_HOH
236   236   1        -0.834000   20.011929   15.505513   66.896776     0   0   2  # O_HOH
237   237   1        -0.834000    7.527099    0.914613   34.991359     2   2   1  # O_HOH
238   238   1        -0.834000    6.118955   18.490585   54.733753   -19   2  -1  # O_HOH
239   239   1        -0.834000   14.945013    8.053752   78.332702    -3   4  -2  # O_HOH
240   240   1        -0.834000    1.650297    6.289802   12.976127    -2  -4   0  # O_HOH
241   241   1        -0.834000   15.852339    6.788330   61.206269    -2 -13  -1  # O_HOH
242   242   1        -0.834000   23.592976   22.008084   49.554052    -4   8   0  # O_HOH
243   243   1        -0.834000   12.385524   18.442614   53.789048     6  -8   0  # O_HOH
244   244   1        -0.834000   19.667512   20.706984   66.048183    -5   6  -1  # O_HOH
245   245   1        -0.834000    7.831454    9.561817   59.605576    -9  -3   0  # O_HOH
246   246   1        -0.834000   16.883878   11.677379   11.898867    -1 -10   1  # O_HOH
247   247   1        -0.834000   22.073903   20.455243   72.579190     0  -7  -2  # O_HOH
248   248   1        -0.834000   16.733179   17.217180   58.288802    -5  -5   0  # O_HOH
249   249   1        -0.834000    0.249681   14.029891   74.765903     0   7   1  # O_HOH
250   250   1        -0.834000   18.318931   13.080830   52.748110     0   8   0  # O_HOH
251   251   1        -0.834000   16.842743   12.777686   50.574477    -1  -3   0  # O_HOH
252   252   1        -0.834000   11.450045   19.366203   77.667291     6 -10   0  # O_HOH
253   253   1        -0.834000    5.767480    2.123311   54.687458     0  -1   2  # O_HOH
254   254   1        -0.834000   21.216252    9.105742   53.060087     1  -1  -1  # O_HOH
255   255   1        -0.834000   20.609330   23.503031   30.499358    10 -13  -1  # O_HOH
256   256   1        -0.834000   14.011680    7.511303   85.609896   -16  -1   0  # O_HOH
257   257   1        -0.834000    3.805662    0.283743   80.377681     7 -12   0  # O_HOH
258   258   1        -0.834000    2.018454    6.441245   36.241490   -13  -2   1  # O_HOH
259   259   1        -0.834000    6.083576   13.022137   54.169515    -2  -4   2  # O_HOH
260   260   1        -0.834000    0.309020   13.417400   55.013276    -5   7   0  # O_HOH
261   261   1        -0.834000   22.223704    5.338158   16.330385    -3  -3   0  # O_HOH
262   262   1        -0.834000   12.194445   19.076537   16.971896    -7  -7   0  # O_HOH
263   263   1        -0.834000   19.983490   19.777756    3.601161    -3  -8   0  # O_HOH
264   264   1        -0.834000    9.397842   23.375893   56.458701    -9  11   0  # O_HOH
265   265   1        -0.834000   10.585022   18.273587   51.661937    -4   1   0  # O_HOH
266   266   1        -0.834000    2.872551   16.749566   44.510999     1  -1  -1  # O_HOH
267   267   1        -0.834000    7.743978   12.466442   43.018169     6  -6   0  # O_HOH
268   268   1        -0.834000    3.594124    3.969374   35.677274     1   2   1  # O_HOH
269   269   1        -0.834000   20.059855    2.332395   82.602677     1  16   1  # O_HOH
270   270   1        -0.834000    2.118289   23.444786   71.353161    -1  -3   1  # O_HOH
271   271   1        -0.834000   21.961823    1.925430   55.266034    -3 -12  -2  # O_HOH
272   272   1        -0.834000    8.927530   13.426858    3.519956    -3  -2   1  # O_HOH
273   273   1        -0.834000    1.180167   15.630196   24.797617     8 -16   1  # O_HOH
274   274   1        -0.834000    4.015088   16.379441   25.235560     9   5   1  # O_HOH
275   275   1        -0.834000   15.338552    1.886321   50.301742    -8   4   0  # O_HOH
276   276   1        -0.834000    4.888483    1.522739    8.943304    -5   2   0  # O_HOH
277   277   1        -0.834000    7.244536    0.609171   15.527738     1  -3   2  # O_HOH
278   278   1        -0.834000    8.908154    4.657501   54.707737     9   4   1  # O_HOH
279   279   1        -0.834000   23.051657   18.911899   75.929840   -11 -18   0  # O_HOH
280   280   1        -0.834000    3.278558   22.875097   33.375539    -1 -11   0  # O_HOH
281   281   1        -0.834000   15.447380    5.542930   63.895145     3  -3   0  # O_HOH
282   282   1        -0.834000    9.579895   22.720485   68.875134     0  -4   1  # O_HOH
283   283   1        -0.834000   21.449508    0.251108    0.888990     0 -10  -1  # O_HOH
284   284   1        -0.834000   20.360893    3.328431   78.131674     0  -4   0  # O_HOH
285   285   1        -0.834000   17.957908    1.521304   53.148219    10  -7   1  # O_HOH
286   286   1        -0.834000    4.964733    9.756045   48.637069     3 -13  -1  # O_HOH
287   287   1        -0.834000   19.642295   23.456376   53.804762     6  -8   0  # O_HOH
288   288   1        -0.834000   11.742893    7.801460   45.298171    -3  -6  -1  # O_HOH
289   289   1        -0.834000    5.335269   10.188841   28.017580   -11  -3   0  # O_HOH
290   290   1        -0.834000   11.536996    4.709042   53.206005   -10  -4   1  # O_HOH
291   291   1        -0.834000    6.382528   23.539652   75.914658    -8  -1  -1  # O_HOH
292   292   1        -0.834000    9.910704   14.208641   71.947710     5  -1  -1  # O_HOH
293   293   1        -0.834000    1.125457   21.000720   57.133131     1  -2  -1  # O_HOH
294   294   1        -0.834000   21.131081    9.325890   61.845274    -5 -10   0  # O_HOH
295   295   1        -0.834000   24.086018   23.121965   29.029886    12  -9   1  # O_HOH
296   296   1        -0.834000    4.933940    5.415536   44.346744     0  -6  -1  # O_HOH
297   297   1        -0.834000    2.034000    9.480133   63.569097    19 -10   1  # O_HOH
298   298   1        -0.834000    9.846311    1.123401   50.518465    10   3   1  # O_HOH
299   299   1        -0.834000   23.191942    8.055487   13.084495    -8 -12  -1  # O_HOH
300   300   1        -0.834000    5.220426   19.688434   48.410073     3   3   1  # O_HOH
301   301   1        -0.834000    9.083945    4.852275   65.006334   -10  -9   1  # O_HOH
302   302   1        -0.834000   12.121248   10.700494   79.058986     4   3  -1  # O_HOH
303   303   1        -0.834000   23.436118    2.665157    7.640767     5 -13   4  # O_HOH
304   304   1        -0.834000   15.604260   19.837069    8.801116   -11  -5   0  # O_HOH
305   305   1        -0.834000    3.379073   14.273087   72.642078    -5  -6   1  # O_HOH
306   306   1        -0.834000   11.347341   13.555743   76.574850     2  -1   1  # O_HOH
307   307   1        -0.834000   19.257412   18.328286   64.163082     6   0   1  # O_HOH
308   308   1        -0.834000   13.588785   20.049532   51.229146    -5 -11   1  # O_HOH
309   309   1        -0.834000    9.541765   15.535833   42.377310   -14   0   1  # O_HOH
310   310   1        -0.834000   14.154039   17.027840   35.493073    10  -7  -2  # O_HOH
311   311   1        -0.834000    0.446292   23.070411   64.352948    -2  -5  -1  # O_HOH
312   312   1        -0.834000   15.314362   12.114932   74.145203    -5   4   1  # O_HOH
313   313   1        -0.834000    4.775791   16.042898   57.799102    -5  -2   0  # O_HOH
314   314   1        -0.834000   19.944195    8.387673   72.672672     9  -9   0  # O_HOH
315   315   1        -0.834000    1.618169   21.515554   52.504002    -4 -15   0  # O_HOH
316   316   1        -0.834000   15.403438   18.517620   30.790954    -7  -4   0  # O_HOH
317   317   1        -0.834000   10.872977   10.861237   30.794894    -4  -2   0  # O_HOH