ITEM: TIMESTEP
0
ITEM: NUMBER OF ATOMS
4761
ITEM: BOX BOUNDS pp pp pp
0.0000000000000000e+00 2.4433001000000001e+01
0.0000000000000000e+00 2.4433001000000001e+01
0.0000000000000000e+00 8.6882897779454566e+01
ITEM: ATOMS id mol type q x y z 
1 1 1 -0.834 10.4613 3.46396 83.2902 
2 1 1 -0.834 7.30499 22.8075 11.6204 
3 1 1 -0.834 2.52069 20.713 49.3074 
4 1 1 -0.834 1.41651 23.1825 34.0174 
5 1 1 -0.834 20.105 16.8734 43.5172 
6 1 1 -0.834 12.9788 18.0686 70.309 
7 1 1 -0.834 2.20279 19.1948 75.023 
8 1 1 -0.834 10.7471 18.1265 13.2665 
9 1 1 -0.834 15.0466 18.3487 6.89232 
10 1 1 -0.834 12.4956 13.3667 75.4243 
11 1 1 -0.834 8.09736 8.56037 67.2314 
12 1 1 -0.834 4.92892 12.3969 55.5569 
13 1 1 -0.834 6.20107 18.0736 45.2461 
14 1 1 -0.834 7.23776 5.24494 78.8446 
15 1 1 -0.834 5.74835 15.1497 60.3457 
16 1 1 -0.834 8.20936 15.5756 52.0526 
17 1 1 -0.834 12.636 2.45554 24.1421 
18 1 1 -0.834 22.3108 4.35691 56.842 
19 1 1 -0.834 18.0416 19.5055 26.1479 
20 1 1 -0.834 1.39914 3.13063 54.4289 
21 1 1 -0.834 22.1221 10.834 14.0101 
22 1 1 -0.834 17.0082 13.5886 63.5131 
23 1 1 -0.834 15.1935 14.646 70.2729 
24 1 1 -0.834 21.696 3.2788 42.4808 
25 1 1 -0.834 22.8554 1.9852 57.9372 
26 1 1 -0.834 23.6626 10.9101 47.9205 
27 1 1 -0.834 12.2323 21.487 73.9646 
28 1 1 -0.834 22.5741 8.22181 13.4888 
29 1 1 -0.834 3.68548 20.329 61.5373 
30 1 1 -0.834 12.3386 6.66854 58.6562 
31 1 1 -0.834 5.36383 6.78048 62.9922 
32 1 1 -0.834 19.6485 22.7394 49.3624 
33 1 1 -0.834 14.2393 18.8613 58.8131 
34 1 1 -0.834 0.65862 19.568 2.54073 
35 1 1 -0.834 2.59469 10.2681 58.9371 
36 1 1 -0.834 20.4761 23.6601 6.21401 
37 1 1 -0.834 13.479 16.1704 68.3396 
38 1 1 -0.834 18.81 11.6971 80.0638 
39 1 1 -0.834 0.407225 23.5384 45.8738 
40 1 1 -0.834 10.4623 8.18222 65.7907 
41 1 1 -0.834 18.5776 13.9398 77.71 
42 1 1 -0.834 9.7509 2.0517 74.0291 
43 1 1 -0.834 7.24585 16.3974 58.3334 
44 1 1 -0.834 23.8559 20.2113 56.0432 
45 1 1 -0.834 4.59383 17.2642 42.2628 
46 1 1 -0.834 10.7024 19.4502 66.0177 
47 1 1 -0.834 23.3675 19.2484 78.6204 
48 1 1 -0.834 20.4865 1.37825 62.452 
49 1 1 -0.834 22.4033 8.641 59.4571 
50 1 1 -0.834 3.67078 9.95455 78.0696 
51 1 1 -0.834 21.6741 21.0603 62.0932 
52 1 1 -0.834 12.9245 23.3708 19.1619 
53 1 1 -0.834 5.666 4.60213 60.7893 
54 1 1 -0.834 11.6884 6.84606 27.5171 
55 1 1 -0.834 20.2219 0.246719 43.1489 
56 1 1 -0.834 21.8482 16.7512 76.0791 
57 1 1 -0.834 4.21605 0.204027 67.6925 
58 1 1 -0.834 7.31733 6.30878 53.8254 
59 1 1 -0.834 14.4567 1.67638 77.1393 
60 1 1 -0.834 10.9039 24.1278 51.4967 
61 1 1 -0.834 9.91356 19.9312 56.4701 
62 1 1 -0.834 17.7865 18.3024 72.2244 
63 1 1 -0.834 15.1597 13.0877 9.69823 
64 1 1 -0.834 3.05188 13.9874 73.517 
65 1 1 -0.834 3.72618 14.011 20.1171 
66 1 1 -0.834 18.5629 16.611 29.1021 
67 1 1 -0.834 4.64071 24.1333 70.5524 
68 1 1 -0.834 24.2237 4.61867 10.4825 
69 1 1 -0.834 0.48141 16.7957 78.3606 
70 1 1 -0.834 22.4647 11.6106 61.9227 
71 1 1 -0.834 16.4576 21.0531 2.59541 
72 1 1 -0.834 8.83351 3.49634 48.5509 
73 1 1 -0.834 6.40537 24.1771 34.1751 
74 1 1 -0.834 14.8185 1.81494 45.2237 
75 1 1 -0.834 16.467 17.3472 55.9943 
76 1 1 -0.834 20.3355 12.8635 62.7376 
77 1 1 -0.834 5.56216 9.81189 54.7579 
78 1 1 -0.834 23.2173 21.3473 58.7611 
79 1 1 -0.834 17.1009 19.6037 4.94221 
80 1 1 -0.834 7.97196 6.88617 46.1952 
81 1 1 -0.834 23.5855 4.70863 51.3327 
82 1 1 -0.834 24.1217 15.6248 56.7025 
83 1 1 -0.834 19.9624 22.7709 30.3051 
84 1 1 -0.834 14.8207 9.5108 57.2441 
85 1 1 -0.834 5.88539 13.8855 46.2046 
86 1 1 -0.834 15.1041 19.2335 73.8624 
87 1 1 -0.834 1.4378 0.983806 77.9403 
88 1 1 -0.834 24.1848 11.4512 39.4072 
89 1 1 -0.834 1.22013 18.2361 51.9057 
90 1 1 -0.834 24.0744 3.20376 77.1121 
91 1 1 -0.834 14.7758 14.8889 64.5211 
92 1 1 -0.834 5.0491 19.4548 71.22 
93 1 1 -0.834 21.3898 14.1884 76.492 
94 1 1 -0.834 20.239 4.32104 64.2652 
95 1 1 -0.834 10.8088 11.6505 71.7437 
96 1 1 -0.834 2.85645 3.63487 82.5228 
97 1 1 -0.834 8.06776 21.1922 70.072 
98 1 1 -0.834 3.18183 15.9207 60.1129 
99 1 1 -0.834 13.264 0.34124 47.2156 
100 1 1 -0.834 10.3084 12.6392 26.6395 
101 1 1 -0.834 2.9012 1.9959 59.3658 
102 1 1 -0.834 5.32424 16.2654 73.7643 
103 1 1 -0.834 0.071521 0.23532 55.444 
104 1 1 -0.834 11.4062 8.40302 42.1166 
105 1 1 -0.834 11.3216 16.3048 45.1604 
106 1 1 -0.834 3.73516 18.1902 20.0576 
107 1 1 -0.834 15.1116 20.269 32.7069 
108 1 1 -0.834 11.4976 20.1592 10.6454 
109 1 1 -0.834 18.1059 22.2131 77.9097 
110 1 1 -0.834 8.36486 20.5408 51.2457 
111 1 1 -0.834 14.91 4.12025 41.5075 
112 1 1 -0.834 22.1697 9.79746 10.8938 
113 1 1 -0.834 20.0944 7.0984 13.1803 
114 1 1 -0.834 16.8631 5.11674 86.6791 
115 1 1 -0.834 14.2559 13.0693 47.2272 
116 1 1 -0.834 20.8886 11.9531 17.614 
117 1 1 -0.834 0.401118 16.9077 66.2812 
118 1 1 -0.834 10.4973 12.601 66.1335 
119 1 1 -0.834 2.36349 14.0738 80.5782 
120 1 1 -0.834 8.3059 15.0416 45.5588 
121 1 1 -0.834 16.1207 11.4866 61.9296 
122 1 1 -0.834 1.21019 5.78376 7.41795 
123 1 1 -0.834 13.7119 15.7843 8.90924 
124 1 1 -0.834 0.980039 2.85855 50.7274 
125 1 1 -0.834 19.9099 12.8141 47.4071 
126 1 1 -0.834 11.7675 1.04943 57.9198 
127 1 1 -0.834 5.97711 12.8485 61.8966 
128 1 1 -0.834 8.6215 16.7109 14.7458 
129 1 1 -0.834 1.11058 9.39745 74.6883 
130 1 1 -0.834 3.18449 24.2433 36.4656 
131 1 1 -0.834 4.7815 2.11004 57.4822 
132 1 1 -0.834 22.235 6.05414 42.6402 
133 1 1 -0.834 0.0144985 0.167082 49.7447 
134 1 1 -0.834 24.3216 1.66025 5.90582 
135 1 1 -0.834 4.06707 0.883906 73.0192 
136 1 1 -0.834 4.00199 8.20199 71.4073 
137 1 1 -0.834 21.2075 14.2096 15.4485 
138 1 1 -0.834 20.2791 16.4349 66.8713 
139 1 1 -0.834 22.096 10.9667 74.3303 
140 1 1 -0.834 7.78364 13.4965 24.9378 
141 1 1 -0.834 20.2434 18.2035 78.4449 
142 1 1 -0.834 14.3652 21.4706 59.3545 
143 1 1 -0.834 4.46094 2.37999 63.9951 
144 1 1 -0.834 18.8737 4.87224 75.8885 
145 1 1 -0.834 18.4527 7.78216 17.4335 
146 1 1 -0.834 16.0617 9.15973 47.6267 
147 1 1 -0.834 14.9859 2.40578 1.31744 
148 1 1 -0.834 19.6563 24.3301 24.4878 
149 1 1 -0.834 10.858 3.6784 77.0615 
150 1 1 -0.834 23.5279 24.2992 52.4601 
151 1 1 -0.834 11.1171 4.25258 68.7127 
152 1 1 -0.834 23.0721 11.0052 71.4338 
153 1 1 -0.834 22.3684 0.390826 25.3858 
154 1 1 -0.834 24.307 7.93363 11.0261 
155 1 1 -0.834 14.8159 11.4817 34.3275 
156 1 1 -0.834 17.9128 13.3481 6.53213 
157 1 1 -0.834 17.3685 4.20575 58.4885 
158 1 1 -0.834 12.4444 14.3859 52.7855 
159 1 1 -0.834 24.3021 14.5864 64.899 
160 1 1 -0.834 11.0425 20.7558 37.2525 
161 1 1 -0.834 3.82051 15.2968 50.6998 
162 1 1 -0.834 20.4097 10.5404 38.786 
163 1 1 -0.834 8.01858 13.4973 43.5186 
164 1 1 -0.834 0.84013 11.8738 43.9973 
165 1 1 -0.834 11.1543 1.5326 19.4543 
166 1 1 -0.834 13.6527 1.91364 79.911 
167 1 1 -0.834 17.1222 0.129375 80.3397 
168 1 1 -0.834 14.6104 3.99929 54.5655 
169 1 1 -0.834 5.39314 3.22324 48.6609 
170 1 1 -0.834 19.5702 20.7801 6.00824 
171 1 1 -0.834 20.5491 13.0071 12.989 
172 1 1 -0.834 16.8724 21.1914 71.8703 
173 1 1 -0.834 24.0067 11.7671 82.9435 
174 1 1 -0.834 10.9482 8.5627 60.577 
175 1 1 -0.834 24.1246 23.9757 72.4119 
176 1 1 -0.834 6.43894 3.997 76.3976 
177 1 1 -0.834 17.8408 7.59274 75.7741 
178 1 1 -0.834 5.66956 10.4554 57.9674 
179 1 1 -0.834 0.829313 19.9528 69.8603 
180 1 1 -0.834 6.559 21.9759 35.8852 
181 1 1 -0.834 4.60109 2.55611 36.7363 
182 1 1 -0.834 5.18394 19.4576 54.4957 
183 1 1 -0.834 5.82073 17.0161 47.7885 
184 1 1 -0.834 18.6053 19.549 1.27398 
185 1 1 -0.834 22.6679 21.6682 72.9766 
186 1 1 -0.834 10.3025 16.548 76.7186 
187 1 1 -0.834 8.62282 19.8305 54.1251 
188 1 1 -0.834 2.93429 6.2858 74.1813 
189 1 1 -0.834 21.4124 2.34486 75.7161 
190 1 1 -0.834 10.0203 19.8205 81.9011 
191 1 1 -0.834 14.4738 13.6223 36.2836 
192 1 1 -0.834 20.8727 18.7173 49.5165 
193 1 1 -0.834 11.6561 19.4601 15.4093 
194 1 1 -0.834 10.7932 23.5463 73.1504 
195 1 1 -0.834 13.1641 6.26563 56.0364 
196 1 1 -0.834 18.3618 2.54566 60.6142 
197 1 1 -0.834 14.9529 14.0079 67.2243 
198 1 1 -0.834 13.3465 24.3777 85.4253 
199 1 1 -0.834 8.7889 12.8414 73.2477 
200 1 1 -0.834 17.4293 19.2941 53.5818 
201 1 1 -0.834 20.3412 1.33891 1.41333 
202 1 1 -0.834 9.58399 10.5039 45.0412 
203 1 1 -0.834 12.6296 16.0683 80.4648 
204 1 1 -0.834 2.75171 22.5269 9.1231 
205 1 1 -0.834 15.2792 3.75462 51.157 
206 1 1 -0.834 20.4014 22.7091 64.9619 
207 1 1 -0.834 3.34341 22.0868 72.8007 
208 1 1 -0.834 21.1893 2.80229 49 
209 1 1 -0.834 5.40039 5.23486 11.9243 
210 1 1 -0.834 20.2971 23.0848 53.2431 
211 1 1 -0.834 0.491033 21.6797 4.78384 
212 1 1 -0.834 5.2885 14.9646 24.9472 
213 1 1 -0.834 15.5915 4.18615 76.451 
214 1 1 -0.834 10.7778 1.27428 47.7806 
215 1 1 -0.834 12.6944 14.0016 11.2188 
216 1 1 -0.834 8.58872 12.8309 54.9379 
217 1 1 -0.834 10.3323 21.7143 19.2347 
218 1 1 -0.834 2.93703 20.5879 55.4434 
219 1 1 -0.834 3.83954 10.3348 43.5298 
220 1 1 -0.834 12.38 10.3417 56.7702 
221 1 1 -0.834 12.566 6.06014 80.5403 
222 1 1 -0.834 19.9683 16.7934 6.40765 
223 1 1 -0.834 20.8544 16.6964 57.5668 
224 1 1 -0.834 7.73743 2.33591 33.4359 
225 1 1 -0.834 18.8367 0.289962 85.892 
226 1 1 -0.834 17.2623 3.71983 82.4811 
227 1 1 -0.834 1.51747 24.1594 65.0445 
228 1 1 -0.834 12.6229 5.83156 77.4327 
229 1 1 -0.834 3.04452 15.1724 1.63926 
230 1 1 -0.834 13.7943 11.2584 49.4681 
231 1 1 -0.834 9.6934 21.9032 77.5324 
232 1 1 -0.834 5.45214 23.7882 37.8248 
233 1 1 -0.834 18.699 0.396725 64.1832 
234 1 1 -0.834 0.881788 10.1127 50.2169 
235 1 1 -0.834 17.4422 0.954345 44.2255 
236 1 1 -0.834 5.02714 0.39608 60.1917 
237 1 1 -0.834 2.53785 8.72513 41.7977 
238 1 1 -0.834 13.8218 9.0611 3.36044 
239 1 1 -0.834 24.0177 19.1167 28.7361 
240 1 1 -0.834 14.958 14.3238 44.5479 
241 1 1 -0.834 9.13236 5.75325 76.2447 
242 1 1 -0.834 0.233935 5.41947 47.6613 
243 1 1 -0.834 17.1727 7.1689 50.6223 
244 1 1 -0.834 5.65259 11.828 1.81122 
245 1 1 -0.834 5.76422 7.19182 56.3754 
246 1 1 -0.834 19.2937 11.9721 53.3289 
247 1 1 -0.834 21.9363 19.9581 4.27722 
248 1 1 -0.834 12.5873 17.5861 32.467 
249 1 1 -0.834 0.720454 12.2568 74.0171 
250 1 1 -0.834 4.52171 0.377994 48.1571 
251 1 1 -0.834 7.06491 9.06165 1.32947 
252 1 1 -0.834 3.01042 19.7924 67.4617 
253 1 1 -0.834 8.22735 15.0511 67.6809 
254 1 1 -0.834 13.2535 19.749 46.8474 
255 1 1 -0.834 15.9732 9.70689 67.8332 
256 1 1 -0.834 8.80609 2.97575 42.6319 
257 1 1 -0.834 9.32769 21.9781 41.0801 
258 1 1 -0.834 5.63536 10.9849 76.2056 
259 1 1 -0.834 2.58453 7.43335 56.6164 
260 1 1 -0.834 10.4372 16.4781 64.9651 
261 1 1 -0.834 3.80561 19.1592 64.1635 
262 1 1 -0.834 21.141 9.78623 44.402 
263 1 1 -0.834 23.4738 12.0485 19.7948 
264 1 1 -0.834 16.1049 8.95832 60.6685 
265 1 1 -0.834 23.3154 7.35789 35.8641 
266 1 1 -0.834 3.77269 0.549342 80.3674 
267 1 1 -0.834 23.5592 19.0831 75.818 
268 1 1 -0.834 23.2402 6.50943 61.0702 
269 1 1 -0.834 23.6857 18.6015 49.7899 
270 1 1 -0.834 21.1763 20.2448 0.127392 
271 1 1 -0.834 0.465731 6.58405 75.8409 
272 1 1 -0.834 6.34298 6.90512 59.1247 
273 1 1 -0.834 7.76298 10.2844 85.829 
274 1 1 -0.834 14.3659 2.98013 17.0113 
275 1 1 -0.834 11.7193 18.343 50.8256 
276 1 1 -0.834 20.2157 5.03726 17.503 
277 1 1 -0.834 1.5546 10.8078 62.0713 
278 1 1 -0.834 5.99816 1.59877 52.3622 
279 1 1 -0.834 8.68473 8.82207 55.0656 
280 1 1 -0.834 1.44288 13.6288 24.293 
281 1 1 -0.834 14.389 3.49168 85.3339 
282 1 1 -0.834 21.2936 10.0532 49.5009 
283 1 1 -0.834 9.46802 14.1047 75.5529 
284 1 1 -0.834 10.1449 7.4758 78.0096 
285 1 1 -0.834 17.0646 19.8604 43.4649 
286 1 1 -0.834 8.86654 6.12343 57.6374 
287 1 1 -0.834 9.52847 15.6922 41.9583 
288 1 1 -0.834 6.8578 1.95376 45.1477 
289 1 1 -0.834 7.27189 0.936816 39.2203 
290 1 1 -0.834 6.58205 3.9057 66.4624 
291 1 1 -0.834 2.06308 10.8829 80.0147 
292 1 1 -0.834 19.4421 9.32978 52.8121 
293 1 1 -0.834 21.6418 21.3538 32.0488 
294 1 1 -0.834 4.28307 3.07747 67.8467 
295 1 1 -0.834 17.6911 1.51034 25.5665 
296 1 1 -0.834 15.8264 0.315517 63.4587 
297 1 1 -0.834 14.2728 16.5223 4.96952 
298 1 1 -0.834 12.341 3.9803 19.1797 
299 1 1 -0.834 17.7122 7.79879 71.861 
300 1 1 -0.834 20.4025 14.1841 65.1745 
301 1 1 -0.834 6.28427 21.815 39.7706 
302 1 1 -0.834 14.1754 0.507404 53.9671 
303 1 1 -0.834 8.64944 9.29977 32.0055 
304 1 1 -0.834 7.89014 17.3899 74.9782 
305 1 1 -0.834 5.48874 18.0366 68.7805 
306 1 1 -0.834 0.411951 9.10515 38.0657 
307 1 1 -0.834 5.47622 21.0885 68.2916 
308 1 1 -0.834 17.7854 11.0812 72.4991 
309 1 1 -0.834 6.99736 2.4436 59.6187 
310 1 1 -0.834 23.0453 4.35157 36.0893 
311 1 1 -0.834 17.9714 1.33494 50.7176 
312 1 1 -0.834 23.1992 0.851815 31.9641 
313 1 1 -0.834 1.58693 7.55176 35.2625 
314 1 1 -0.834 9.02172 13.8059 47.985 
315 1 1 -0.834 19.4156 18.9794 56.7303 
316 1 1 -0.834 8.64128 17.3395 61.1797 
317 1 1 -0.834 9.93461 6.96096 3.68525 
318 1 1 -0.834 15.1634 19.0341 61.674 
319 1 1 -0.834 5.28905 7.85777 78.3528 
320 1 1 -0.834 14.1939 17.7353 54.1168 
321 1 1 -0.834 8.01971 18.9635 58.4146 
322 1 1 -0.834 12.3537 13.574 28.7531 
323 1 1 -0.834 2.60401 23.495 51.419 
324 1 1 -0.834 7.10183 2.18915 63.3205 
325 1 1 -0.834 13.2278 8.71146 78.2507 
326 1 1 -0.834 10.7795 18.7802 17.9308 
327 1 1 -0.834 23.5498 3.84173 31.6212 
328 1 1 -0.834 5.29035 14.9486 18.0254 
329 1 1 -0.834 8.87905 7.06393 63.6958 
330 1 1 -0.834 13.5008 2.63133 62.0074 
331 1 1 -0.834 9.95952 17.586 52.8879 
332 1 1 -0.834 16.0576 16.1707 52.243 
333 1 1 -0.834 5.60207 5.53477 47.3186 
334 1 1 -0.834 11.8666 11.222 52.214 
335 1 1 -0.834 3.35241 10.878 72.914 
336 1 1 -0.834 13.0884 0.840385 64.1228 
337 1 1 -0.834 0.246868 5.8308 43.9125 
338 1 1 -0.834 7.88072 12.1154 59.6495 
339 1 1 -0.834 4.70613 3.32861 5.09107 
340 1 1 -0.834 6.68671 4.58211 57.4817 
341 1 1 -0.834 21.5617 9.66746 67.7416 
342 1 1 -0.834 23.7663 15.1752 22.8768 
343 1 1 -0.834 21.442 9.76857 56.879 
344 1 1 -0.834 22.1882 12.7792 59.0513 
345 1 1 -0.834 16.9798 18.3606 45.9112 
346 1 1 -0.834 14.0683 18.3627 37.2938 
347 1 1 -0.834 18.452 16.4938 76.9864 
348 1 1 -0.834 12.5214 22.4961 40.8316 
349 1 1 -0.834 12.489 18.3059 56.3927 
350 1 1 -0.834 0.460473 2.66295 73.3298 
351 1 1 -0.834 1.39023 4.64582 30.406 
352 1 1 -0.834 3.98686 19.7622 44.494 
353 1 1 -0.834 2.23607 15.5172 57.5905 
354 1 1 -0.834 8.28663 12.107 67.8546 
355 1 1 -0.834 20.3702 2.11731 66.8506 
356 1 1 -0.834 13.5486 13.6203 72.7477 
357 1 1 -0.834 24.3628 14.4578 72.6605 
358 1 1 -0.834 3.36604 22.2484 46.9389 
359 1 1 -0.834 22.624 17.2667 0.517446 
360 1 1 -0.834 17.147 14.6335 35.3271 
361 1 1 -0.834 22.3577 18.4441 61.1815 
362 1 1 -0.834 18.6608 10.5537 66.7396 
363 1 1 -0.834 3.14297 15.0802 16.1133 
364 1 1 -0.834 0.778367 3.58557 80.7551 
365 1 1 -0.834 5.25832 16.6025 63.101 
366 1 1 -0.834 6.09993 10.4647 29.7096 
367 1 1 -0.834 5.10496 17.0847 56.8219 
368 1 1 -0.834 19.6597 9.1388 11.3593 
369 1 1 -0.834 15.3932 20.0669 9.61887 
370 1 1 -0.834 5.67013 20.7058 65.5238 
371 1 1 -0.834 12.7415 10.3919 43.571 
372 1 1 -0.834 23.808 8.4968 66.4739 
373 1 1 -0.834 2.02262 9.46024 47.5705 
374 1 1 -0.834 3.81176 13.4967 22.9398 
375 1 1 -0.834 20.3388 23.1271 45.5856 
376 1 1 -0.834 0.43169 18.9741 22.0254 
377 1 1 -0.834 18.5817 21.114 28.39 
378 1 1 -0.834 6.0467 22.2296 71.6192 
379 1 1 -0.834 9.87186 16.4923 48.0368 
380 1 1 -0.834 1.09795 0.231346 58.0819 
381 1 1 -0.834 2.35538 16.3794 74.4476 
382 1 1 -0.834 15.6457 23.95 65.9848 
383 1 1 -0.834 10.7867 13.3362 43.6545 
384 1 1 -0.834 2.34447 1.99291 4.84173 
385 1 1 -0.834 8.32378 17.2268 70.8375 
386 1 1 -0.834 20.4474 8.17422 72.6374 
387 1 1 -0.834 20.2579 6.13279 80.0144 
388 1 1 -0.834 21.1085 5.93927 49.7961 
389 1 1 -0.834 17.8704 3.76346 45.6186 
390 1 1 -0.834 23.6074 2.32242 34.2073 
391 1 1 -0.834 22.0954 14.8822 70.8194 
392 1 1 -0.834 14.1773 12.1001 31.0763 
393 1 1 -0.834 0.921436 19.169 61.1841 
394 1 1 -0.834 6.26889 19.3395 40.9786 
395 1 1 -0.834 23.9661 12.2517 51.4475 
396 1 1 -0.834 7.8416 5.02675 5.7337 
397 1 1 -0.834 1.81703 21.7452 57.7902 
398 1 1 -0.834 12.2463 15.1765 6.43304 
399 1 1 -0.834 20.3528 12.9969 35.6216 
400 1 1 -0.834 18.3688 7.23009 60.9731 
401 1 1 -0.834 10.4605 15.8211 32.8746 
402 1 1 -0.834 20.3764 17.3864 73.4526 
403 1 1 -0.834 2.56838 0.846614 53.8454 
404 1 1 -0.834 1.82467 1.50842 46.0637 
405 1 1 -0.834 11.3211 3.65023 79.764 
406 1 1 -0.834 1.60072 17.5461 24.5285 
407 1 1 -0.834 7.30578 19.2004 72.9617 
408 1 1 -0.834 15.3499 17.4239 10.3902 
409 1 1 -0.834 10.5843 14.7192 8.75372 
410 1 1 -0.834 7.46338 11.6679 22.7029 
411 1 1 -0.834 0.345848 5.37852 33.6273 
412 1 1 -0.834 13.8359 7.53702 43.6645 
413 1 1 -0.834 19.5354 10.4411 36.0506 
414 1 1 -0.834 24.2927 24.1073 3.78491 
415 1 1 -0.834 20.9452 14.0374 44.7403 
416 1 1 -0.834 4.2988 17.428 17.3408 
417 1 1 -0.834 10.1271 1.42135 69.1932 
418 1 1 -0.834 10.6028 23.1354 68.8614 
419 1 1 -0.834 14.3446 11.1203 66.4474 
420 1 1 -0.834 21.1972 0.0133482 50.7859 
421 1 1 -0.834 4.66334 4.6698 44.5255 
422 1 1 -0.834 6.69788 10.1015 42.4523 
423 1 1 -0.834 3.16167 2.91564 78.9178 
424 1 1 -0.834 12.5504 12.4987 62.3511 
425 1 1 -0.834 20.4179 5.83762 59.804 
426 1 1 -0.834 24.3531 8.81283 77.4612 
427 1 1 -0.834 20.606 24.1992 3.51193 
428 1 1 -0.834 24.3466 14.9633 76.1987 
429 1 1 -0.834 12.2815 6.26865 50.2459 
430 1 1 -0.834 23.0086 4.01356 53.9313 
431 1 1 -0.834 5.90681 1.54696 55.1141 
432 1 1 -0.834 11.4726 6.31232 53.4855 
433 1 1 -0.834 17.5987 7.90347 66.1109 
434 1 1 -0.834 14.026 14.9455 30.5203 
435 1 1 -0.834 19.9473 17.0453 61.4927 
436 1 1 -0.834 2.06691 24.1353 62.0341 
437 1 1 -0.834 18.3252 17.7022 48.2081 
438 1 1 -0.834 14.9306 18.0335 80.1278 
439 1 1 -0.834 2.84388 10.2622 21.2965 
440 1 1 -0.834 16.5151 15.637 30.8061 
441 1 1 -0.834 16.1875 14.9065 8.01161 
442 1 1 -0.834 18.927 17.1824 54.5422 
443 1 1 -0.834 17.2371 2.28513 65.5777 
444 1 1 -0.834 4.48749 17.0242 52.8245 
445 1 1 -0.834 4.74275 11.4227 83.6917 
446 1 1 -0.834 13.7632 16.9691 46.5678 
447 1 1 -0.834 6.98138 10.4357 65.2407 
448 1 1 -0.834 2.22203 2.33118 33.7313 
449 1 1 -0.834 5.72105 19.0362 75.817 
450 1 1 -0.834 16.3489 2.85181 74.0958 
451 1 1 -0.834 12.4554 21.6351 76.7345 
452 1 1 -0.834 18.5823 6.61782 63.7319 
453 1 1 -0.834 20.1097 19.9897 46.5985 
454 1 1 -0.834 11.1742 9.76289 30.5365 
455 1 1 -0.834 15.8506 15.2159 38.1465 
456 1 1 -0.834 8.3173 9.93537 74.6624 
457 1 1 -0.834 7.03113 23.7223 17.5698 
458 1 1 -0.834 21.5109 4.45454 46.5567 
459 1 1 -0.834 1.89201 22.2994 26.6582 
460 1 1 -0.834 19.7684 3.7417 51.3154 
461 1 1 -0.834 15.6854 23.3825 57.7975 
462 1 1 -0.834 1.14433 14.462 50.885 
463 1 1 -0.834 10.1426 2.57746 52.0455 
464 1 1 -0.834 4.16871 11.0582 24.2811 
465 1 1 -0.834 5.67774 13.9957 57.6872 
466 1 1 -0.834 20.623 20.9757 77.4925 
467 1 1 -0.834 15.0538 6.67709 59.0555 
468 1 1 -0.834 10.9639 18.2133 62.4277 
469 1 1 -0.834 12.6737 0.34217 60.4378 
470 1 1 -0.834 15.7546 7.26508 77.3786 
471 1 1 -0.834 17.9585 9.23042 42.8785 
472 1 1 -0.834 0.247437 3.96746 66.0452 
473 1 1 -0.834 9.22713 3.23765 45.5303 
474 1 1 -0.834 9.23497 22.3823 53.2224 
475 1 1 -0.834 10.7115 7.13785 69.6399 
476 1 1 -0.834 4.76084 17.0007 65.7664 
477 1 1 -0.834 6.10793 14.3176 49.5769 
478 1 1 -0.834 18.74 7.59108 40.4009 
479 1 1 -0.834 19.9142 19.7018 52.0264 
480 1 1 -0.834 16.763 12.8857 32.0059 
481 1 1 -0.834 18.4326 10.3674 13.4249 
482 1 1 -0.834 6.87753 11.2201 45.2817 
483 1 1 -0.834 20.8474 1.7546 27.4742 
484 1 1 -0.834 19.5384 6.7158 45.7297 
485 1 1 -0.834 23.4078 15.6198 47.7039 
486 1 1 -0.834 13.2858 10.7206 28.9842 
487 1 1 -0.834 13.3376 16.2332 50.9839 
488 1 1 -0.834 6.41187 11.4059 73.3563 
489 1 1 -0.834 12.8735 2.04445 71.0373 
490 1 1 -0.834 19.1628 20.7692 23.8799 
491 1 1 -0.834 1.21526 13.0428 41.3105 
492 1 1 -0.834 15.3867 0.81714 18.0109 
493 1 1 -0.834 7.40845 11.4299 48.7309 
494 1 1 -0.834 11.8195 13.7036 70.4468 
495 1 1 -0.834 21.4711 7.90152 78.1301 
496 1 1 -0.834 4.59602 23.2162 55.1684 
497 1 1 -0.834 16.7414 10.7857 36.296 
498 1 1 -0.834 23.4576 23.4315 62.4025 
499 1 1 -0.834 16.7798 19.0011 51.0074 
500 1 1 -0.834 13.3622 5.01313 0.666778 
501 1 1 -0.834 16.9618 0.599542 55.5864 
502 1 1 -0.834 17.5111 14.4191 74.4814 
503 1 1 -0.834 16.5231 9.57216 78.4499 
504 1 1 -0.834 8.12487 21.0404 17.7842 
505 1 1 -0.834 6.08503 8.94507 49.9841 
506 1 1 -0.834 1.85779 5.71324 71.5946 
507 1 1 -0.834 22.4028 22.0321 69.1763 
508 1 1 -0.834 9.39484 4.33395 62.6949 
509 1 1 -0.834 23.4357 4.59925 74.4338 
510 1 1 -0.834 3.64567 24.4096 32.841 
511 1 1 -0.834 9.12895 7.96556 72.8595 
512 1 1 -0.834 16.8988 14.1456 13.6008 
513 1 1 -0.834 11.1716 20.7601 79.636 
514 1 1 -0.834 7.14282 20.4574 60.6267 
515 1 1 -0.834 5.87512 22.6046 45.4959 
516 1 1 -0.834 3.89413 8.32805 60.2261 
517 1 1 -0.834 24.1658 10.2627 55.5179 
518 1 1 -0.834 19.5293 10.6784 74.9388 
519 1 1 -0.834 22.2576 1.94514 64.6072 
520 1 1 -0.834 14.4739 14.9629 33.8602 
521 1 1 -0.834 10.474 23.6403 38.052 
522 1 1 -0.834 21.7124 0.482493 55.0496 
523 1 1 -0.834 8.10054 14.1611 78.2865 
524 1 1 -0.834 10.9792 12.2993 7.45887 
525 1 1 -0.834 17.5659 4.029 67.7726 
526 1 1 -0.834 22.0539 15.412 50.1847 
527 1 1 -0.834 6.02724 2.25982 80.2292 
528 1 1 -0.834 15.5401 8.75299 63.8248 
529 1 1 -0.834 17.6105 7.74956 14.5272 
530 1 1 -0.834 15.115 8.74732 71.3977 
531 1 1 -0.834 5.99797 9.96999 70.9482 
532 1 1 -0.834 22.4907 21.5658 6.82292 
533 1 1 -0.834 7.18189 12.3653 4.39632 
534 1 1 -0.834 14.7854 23.4862 72.5381 
535 1 1 -0.834 22.5694 17.6199 71.4712 
536 1 1 -0.834 11.1767 4.76486 25.5603 
537 1 1 -0.834 5.24001 13.6746 43.1745 
538 1 1 -0.834 14.4028 7.57587 66.6032 
539 1 1 -0.834 9.18442 0.580727 65.9431 
540 1 1 -0.834 8.29878 6.75421 1.0646 
541 1 1 -0.834 12.2698 11.7787 33.1345 
542 1 1 -0.834 0.739575 1.10327 9.64373 
543 1 1 -0.834 5.79837 23.8675 74.6777 
544 1 1 -0.834 2.78638 15.9481 54.9673 
545 1 1 -0.834 11.2049 10.9951 0.299025 
546 1 1 -0.834 4.38087 13.3005 86.8075 
547 1 1 -0.834 1.4385 22.6537 70.7636 
548 1 1 -0.834 0.823104 9.65167 13.6138 
549 1 1 -0.834 2.39624 5.9652 63.5024 
550 1 1 -0.834 13.0095 23.2793 65.7519 
551 1 1 -0.834 23.9397 7.59169 16.2996 
552 1 1 -0.834 24.2184 20.3059 42.9603 
553 1 1 -0.834 5.4597 16.5783 80.8533 
554 1 1 -0.834 16.0125 9.46082 53.052 
555 1 1 -0.834 15.4804 20.7068 45.8471 
556 1 1 -0.834 1.18169 21.7701 60.4523 
557 1 1 -0.834 11.5419 3.69831 49.5402 
558 1 1 -0.834 14.3153 23.1987 79.823 
559 1 1 -0.834 10.4332 5.73104 45.8787 
560 1 1 -0.834 4.99198 11.6512 50.947 
561 1 1 -0.834 3.52039 5.00466 32.5613 
562 1 1 -0.834 0.553863 7.41199 49.9595 
563 1 1 -0.834 16.1689 12.3341 80.1142 
564 1 1 -0.834 12.8609 0.644774 21.7509 
565 1 1 -0.834 18.0201 21.6205 47.1787 
566 1 1 -0.834 0.177115 5.9456 57.1709 
567 1 1 -0.834 11.6378 0.975233 83.0323 
568 1 1 -0.834 16.3277 24.0851 76.9504 
569 1 1 -0.834 18.0539 13.8483 11.1401 
570 1 1 -0.834 20.0543 7.50115 43.1756 
571 1 1 -0.834 2.41425 11.91 76.4283 
572 1 1 -0.834 4.91938 14.5145 67.3673 
573 1 1 -0.834 5.19342 20.6114 13.7951 
574 1 1 -0.834 4.15146 0.358683 45.0034 
575 1 1 -0.834 15.0984 1.75882 57.5048 
576 1 1 -0.834 18.2118 3.01411 77.8293 
577 1 1 -0.834 5.81027 7.71983 30.8944 
578 1 1 -0.834 1.07157 6.37787 38.7248 
579 1 1 -0.834 6.26405 7.75093 26.2965 
580 1 1 -0.834 6.96134 23.5075 49.3475 
581 1 1 -0.834 18.8626 4.40855 70.5364 
582 1 1 -0.834 11.5696 9.22937 47.0989 
583 1 1 -0.834 18.4102 11.9701 50.0269 
584 1 1 -0.834 9.24413 0.648877 16.1766 
585 1 1 -0.834 15.3896 2.93139 25.9964 
586 1 1 -0.834 5.93287 14.2201 72.0777 
587 1 1 -0.834 2.26757 4.06684 61.1995 
588 1 1 -0.834 9.85821 7.75552 50.1674 
589 1 1 -0.834 18.3129 4.60655 41.0365 
590 1 1 -0.834 14.841 20.2504 49.5514 
591 1 1 -0.834 2.57337 11.0266 52.1978 
592 1 1 -0.834 17.3406 4.21991 53.4151 
593 1 1 -0.834 4.93578 7.71472 43.49 
594 1 1 -0.834 17.3246 16.9151 33.441 
595 1 1 -0.834 22.2683 20.7279 39.2611 
596 1 1 -0.834 21.7145 20.2105 64.8173 
597 1 1 -0.834 8.51759 21.8301 67.131 
598 1 1 -0.834 9.14901 20.506 12.2475 
599 1 1 -0.834 8.58794 19.9571 64.4522 
600 1 1 -0.834 5.27881 6.3965 28.6118 
601 1 1 -0.834 12.0789 21.9797 48.3871 
602 1 1 -0.834 23.8054 4.05305 62.9525 
603 1 1 -0.834 19.9027 11.2728 77.6332 
604 1 1 -0.834 21.8155 19.0168 42.383 
605 1 1 -0.834 19.6376 22.7897 61.5686 
606 1 1 -0.834 20.2337 20.2254 74.4088 
607 1 1 -0.834 11.2873 10.1022 76.2059 
608 1 1 -0.834 6.86778 4.69925 9.25352 
609 1 1 -0.834 0.151599 1.65793 68.8574 
610 1 1 -0.834 11.5025 22.9505 57.1506 
611 1 1 -0.834 4.27836 9.25527 27.5896 
612 1 1 -0.834 12.0275 11.0142 4.45921 
613 1 1 -0.834 18.9347 2.30381 55.3899 
614 1 1 -0.834 2.88928 5.09846 66.1721 
615 1 1 -0.834 12.4 16.2968 37.1593 
616 1 1 -0.834 23.1251 13.9998 17.3975 
617 1 1 -0.834 19.3609 19.1498 69.4611 
618 1 1 -0.834 0.381989 13.2075 58.3348 
619 1 1 -0.834 6.42978 15.7614 69.7012 
620 1 1 -0.834 21.5371 5.27906 76.2515 
621 1 1 -0.834 0.345196 5.38906 78.4992 
622 1 1 -0.834 13.1763 18.5899 8.86132 
623 1 1 -0.834 22.6165 10.9594 42.5003 
624 1 1 -0.834 19.0547 20.1483 67.0207 
625 1 1 -0.834 6.40887 6.3297 65.3966 
626 1 1 -0.834 19.0312 13.543 60.1545 
627 1 1 -0.834 10.4995 22.8419 46.1851 
628 1 1 -0.834 23.8496 15.0292 20.1838 
629 1 1 -0.834 24.2936 0.378794 75.1389 
630 1 1 -0.834 22.5025 20.9331 47.8675 
631 1 1 -0.834 3.98613 8.17374 68.4868 
632 1 1 -0.834 2.16478 22.7509 67.9205 
633 1 1 -0.834 0.834339 13.3068 70.1997 
634 1 1 -0.834 8.37835 7.29713 23.9275 
635 1 1 -0.834 19.1633 7.40813 48.4408 
636 1 1 -0.834 6.58814 20.9928 56.5227 
637 1 1 -0.834 3.93616 7.73748 33.6419 
638 1 1 -0.834 10.4262 19.5262 76.3194 
639 1 1 -0.834 4.60054 9.35317 2.87739 
640 1 1 -0.834 20.5879 6.76671 70.1886 
641 1 1 -0.834 1.2238 4.51431 68.681 
642 1 1 -0.834 17.3206 24.109 46.7461 
643 1 1 -0.834 6.61194 12.9067 53.0337 
644 1 1 -0.834 0.902355 8.01672 62.6592 
645 1 1 -0.834 21.2194 2.29885 53.1354 
646 1 1 -0.834 14.4643 23.0776 61.8058 
647 1 1 -0.834 16.561 11.3108 11.3745 
648 1 1 -0.834 17.8095 17.0383 4.90576 
649 1 1 -0.834 12.8134 4.92173 70.7943 
650 1 1 -0.834 22.6922 15.6043 83.5459 
651 1 1 -0.834 2.53152 5.98639 79.9629 
652 1 1 -0.834 6.949 18.6227 13.2082 
653 1 1 -0.834 11.8109 7.63458 72.0352 
654 1 1 -0.834 11.739 18.5526 59.8691 
655 1 1 -0.834 10.9334 21.3997 50.7268 
656 1 1 -0.834 18.9096 14.0005 33.3301 
657 1 1 -0.834 9.84889 9.80912 3.30058 
658 1 1 -0.834 16.6971 22.6016 43.7316 
659 1 1 -0.834 21.9362 13.6696 73.3956 
660 1 1 -0.834 6.79438 12.9965 64.8161 
661 1 1 -0.834 2.6121 3.7797 10.3351 
662 1 1 -0.834 17.6701 17.14 8.79593 
663 1 1 -0.834 8.72554 11.333 77.1249 
664 1 1 -0.834 3.55815 3.66398 74.0627 
665 1 1 -0.834 22.4294 2.4612 9.57613 
666 1 1 -0.834 0.469643 8.12355 53.9358 
667 1 1 -0.834 1.57226 17.2303 48.8862 
668 1 1 -0.834 17.5059 21.1464 56.9146 
669 1 1 -0.834 6.1801 9.3245 47.0926 
670 1 1 -0.834 3.64544 6.46347 6.19688 
671 1 1 -0.834 5.92797 6.44266 69.55 
672 1 1 -0.834 2.13265 4.05431 57.2512 
673 1 1 -0.834 12.2572 23.1232 81.5303 
674 1 1 -0.834 11.5219 16.112 54.9363 
675 1 1 -0.834 19.1942 5.09068 56.6509 
676 1 1 -0.834 17.3715 19.6445 7.93276 
677 1 1 -0.834 6.49927 18.439 15.943 
678 1 1 -0.834 13.0518 9.00973 50.8347 
679 1 1 -0.834 21.2314 9.62881 63.5425 
680 1 1 -0.834 15.959 15.9528 76.3163 
681 1 1 -0.834 14.4873 17.8179 34.5897 
682 1 1 -0.834 3.71011 9.13558 74.9325 
683 1 1 -0.834 16.9341 17.2898 36.5912 
684 1 1 -0.834 23.4029 24.3025 7.68642 
685 1 1 -0.834 15.0696 12.3687 51.6652 
686 1 1 -0.834 18.4805 15.0491 47.1666 
687 1 1 -0.834 0.375739 17.2747 54.4397 
688 1 1 -0.834 20.0538 1.59099 45.8267 
689 1 1 -0.834 13.5814 0.132135 68.5916 
690 1 1 -0.834 3.81201 12.5496 59.9217 
691 1 1 -0.834 7.32703 24.0449 57.2302 
692 1 1 -0.834 15.4872 13.6635 54.3791 
693 1 1 -0.834 5.79684 17.003 78.0972 
694 1 1 -0.834 15.1231 5.36492 62.0151 
695 1 1 -0.834 15.7936 11.9223 69.426 
696 1 1 -0.834 23.3324 12.5596 67.0152 
697 1 1 -0.834 16.2215 22.6086 68.5159 
698 1 1 -0.834 19.0798 0.308194 77.8769 
699 1 1 -0.834 18.9527 2.28315 81.2715 
700 1 1 -0.834 18.8273 10.5822 16.2352 
701 1 1 -0.834 23.1435 19.2414 85.2769 
702 1 1 -0.834 15.381 7.92481 21.4153 
703 1 1 -0.834 17.153 6.60572 44.0068 
704 1 1 -0.834 4.49317 6.13617 53.361 
705 1 1 -0.834 7.1235 24.2262 79.6536 
706 1 1 -0.834 19.3576 16.0027 31.5259 
707 1 1 -0.834 10.9649 2.47543 64.7884 
708 1 1 -0.834 3.20629 8.02347 45.4703 
709 1 1 -0.834 20.1797 19.1778 31.5624 
710 1 1 -0.834 16.4056 9.98845 50.4247 
711 1 1 -0.834 18.486 11.3936 58.3292 
712 1 1 -0.834 21.4257 9.68492 18.9822 
713 1 1 -0.834 5.12885 19.9125 50.4918 
714 1 1 -0.834 14.5932 19.3086 66.874 
715 1 1 -0.834 16.733 12.1344 47.0299 
716 1 1 -0.834 2.10081 6.77512 9.72546 
717 1 1 -0.834 23.8185 4.45729 13.3786 
718 1 1 -0.834 21.3101 20.7735 26.7747 
719 1 1 -0.834 12.4171 3.70899 58.7498 
720 1 1 -0.834 18.6347 9.72421 55.6883 
721 1 1 -0.834 1.17957 0.0282956 30.5902 
722 1 1 -0.834 14.3339 11.0386 75.8012 
723 1 1 -0.834 22.9901 17.7496 23.8007 
724 1 1 -0.834 16.5471 14.712 59.6834 
725 1 1 -0.834 3.0412 16.3019 82.1144 
726 1 1 -0.834 21.3088 5.09758 15.0001 
727 1 1 -0.834 16.3194 0.208261 85.2053 
728 1 1 -0.834 12.2651 1.59426 75.6445 
729 1 1 -0.834 11.5975 19.5884 34.7395 
730 1 1 -0.834 20.9653 3.83894 78.5077 
731 1 1 -0.834 6.3422 5.90831 3.3972 
732 1 1 -0.834 10.8648 9.89723 25.6095 
733 1 1 -0.834 8.29951 17.8874 81.0439 
734 1 1 -0.834 10.8619 13.1676 31.3109 
735 1 1 -0.834 12.18 8.59693 86.2061 
736 1 1 -0.834 16.7531 17.5432 66.2694 
737 1 1 -0.834 2.39112 2.13144 29.3665 
738 1 1 -0.834 19.5676 3.55526 73.372 
739 1 1 -0.834 2.63186 14.656 62.4179 
740 1 1 -0.834 12.4821 0.786262 40.4762 
741 1 1 -0.834 20.0614 22.7218 67.5975 
742 1 1 -0.834 2.21745 15.4451 67.7792 
743 1 1 -0.834 11.1227 12.0219 48.7475 
744 1 1 -0.834 18.6487 5.08725 20.1593 
745 1 1 -0.834 10.6113 4.88067 0.615889 
746 1 1 -0.834 22.9055 22.7307 44.1449 
747 1 1 -0.834 3.61605 1.81665 50.8604 
748 1 1 -0.834 23.8896 10.413 79.6079 
749 1 1 -0.834 16.8376 0.357365 60.9392 
750 1 1 -0.834 7.82673 5.59776 73.8476 