    1161
 i =      106, E =    -13964.5126373002
 Ti        10.6071550706       15.3106380981       25.0626592739
 Si        23.1445900000        3.0647400000        0.8899300000
 Si        21.3682700000        4.8198500000        6.9981700000
 Si        19.6131400000        3.0436300000       13.1062800000
 Si        21.3892200000        1.2884700000       19.2143300000
 Si        23.1445800000        3.0435900000        5.2185500000
 Si        21.3894400000        4.8199000000       11.3267500000
 Si        19.6130400000        3.0648700000       17.4348200000
 Si        21.3681200000        1.2885400000       23.5429400000
 Si         0.8898400000       23.1445900000        3.0647900000
 Si         1.2884200000        6.9981500000        9.1730700000
 Si        17.4350700000        7.3966200000       15.2809100000
 Si        17.0362600000       23.5433700000       21.3892600000
 Si         0.8897800000        7.3966800000        3.0436500000
 Si        17.0363100000        6.9980800000        9.1519300000
 Si        17.4349000000       23.1446300000       15.2599100000
 Si         1.2882800000       23.5435200000       21.3678600000
 Si         3.0646000000        0.8904600000       23.1442500000
 Si        15.2811700000       17.4349000000        7.3967400000
 Si         6.9981500000       21.3893500000       13.5048500000
 Si         3.0459100000       13.1087800000       19.6002600000
 Si        23.5431800000        9.1518500000       13.5049000000
 Si         3.0436800000        5.2185800000       23.1444000000
 Si         6.9980700000       21.3682600000        4.8199000000
 Si        11.3297700000        9.1747600000       17.0405700000
 Si         1.2878200000       21.3685200000       23.5427800000
 Si         3.0646600000       19.6134500000       17.4339900000
 Si         4.8198800000       21.3894100000       11.3267000000
 Si         3.0435800000       23.1445800000        5.2185500000
 Si         1.2883200000       21.3896200000       19.2139300000
 Si         3.0436400000       19.6130700000       13.1061900000
 Si         4.8198400000       21.3682400000        6.9981700000
 Si         3.0647300000       23.1445900000        0.8899300000
 Si        23.5428800000        1.2886300000       21.3681500000
 Si        23.1445400000       17.4347300000       15.2600000000
 Si         6.9980500000       17.0362600000        9.1519500000
 Si         7.3966700000        0.8897800000        3.0436400000
 Si        23.5427700000       17.0358600000       21.3889600000
 Si         7.3970400000       17.4346100000       15.2812500000
 Si         6.9980900000        1.2884200000        9.1730200000
 Si        23.1445900000        0.8898500000        3.0647900000
 Si        21.3683200000       23.5431900000        1.2884800000
 Si         9.1527500000        6.9991100000       17.0365400000
 Si        17.4348900000        3.0436000000       10.9281100000
 Si        21.3894700000       11.3266900000        4.8199100000
 Si         0.8898800000       15.2811400000       10.9281400000
 Si        21.3894200000       19.2145600000        1.2884900000
 Si        17.4347100000        3.0650200000       19.6131200000
 Si        13.1063000000       15.2600500000        7.3967600000
 Si        23.1446300000       15.2810700000       13.1062900000
 Si        21.3679800000       17.0361000000       19.2143400000
 Si        19.6131600000       15.2600100000        0.8899400000
 Si        21.3894800000       13.5049100000        6.9982000000
 Si        23.1444400000       15.2598800000       17.4347400000
 Si        21.3890600000       17.0361000000       23.5429800000
 Si        19.6131700000       15.2811600000        5.2185700000
 Si        21.3683000000       13.5048700000       11.3267700000
 Si         0.8898300000       10.9280200000       15.2809900000
 Si         1.2877400000       19.2145100000       21.3889400000
 Si        17.4349000000       19.6131500000        3.0648000000
 Si        17.0363200000       11.3266400000        9.1730800000
 Si         0.8896700000       19.6130900000       15.2596800000
 Si        17.0454000000       19.2215100000       21.3644800000
 Si        17.4349700000       10.9280800000        3.0436600000
 Si         1.2884700000       11.3267400000        9.1519400000
 Si         3.0648400000       13.1062900000       10.9282000000
 Si        15.2811000000        5.2188100000       19.6131800000
 Si         6.9980600000        9.1729300000        1.2884900000
 Si         3.0435700000        0.8898300000        7.3967200000
 Si        23.5431700000       21.3683200000        1.2884900000
 Si         3.0436200000       17.4347700000       10.9281000000
 Si         6.9985100000        9.1521000000       17.0359900000
 Si        11.3266900000       21.3894700000        4.8198800000
 Si         1.2884800000        9.1518900000       11.3268600000
 Si         3.0646600000        7.3966900000        5.2185700000
 Si         4.8189000000        9.1732200000       23.5411400000
 Si         3.0432500000       10.9267000000       17.4334500000
 Si         1.2884200000        9.1730100000        6.9982100000
 Si         3.0435200000        7.3966600000        0.8899400000
 Si         4.8189600000        9.1497600000       19.2122300000
 Si         3.0648500000       10.9281000000       13.1065300000
 Si        23.5432400000       13.5049000000        9.1518900000
 Si        23.1445800000        5.2184800000        3.0436400000
 Si         6.9983900000        4.8199200000       21.3680600000
 Si         7.3982300000       13.1040000000       15.2580400000
 Si        23.5431800000        4.8198700000        9.1730300000
 Si         7.3966600000        5.2184200000        3.0647900000
 Si         6.9738100000       13.5157500000       21.3983600000
 Si        23.1446800000       13.1061200000       15.2811700000
 Si        21.3682900000       11.3266500000       13.5049600000
 Si         9.1517600000       19.2145200000        4.8199000000
 Si        17.4351100000       15.2592000000       23.1443900000
 Si        21.3893700000       23.5432800000       17.0362100000
 Si         0.8897100000        3.0649800000       23.1444400000
 Si        21.3894400000        6.9981800000       13.5049300000
 Si        17.4349300000       15.2811600000        7.3967400000
 Si        13.1063100000        3.0438200000       19.6131200000
 Si        10.9280700000        3.0649000000       13.1064300000
 Si         9.1519500000        4.8201600000       19.2142500000
 Si         7.3966600000        3.0435300000        0.8899300000
 Si         9.1729800000        1.2884100000        6.9981600000
 Si        10.9281500000        3.0437800000       17.4348400000
 Si         9.1732600000        4.8194700000       23.5424900000
 Si         7.3966700000        3.0646800000        5.2185400000
 Si         9.1518500000        1.2884700000       11.3267600000
 Si        13.1062100000       23.1446100000       15.2810500000
 Si        13.5052800000        6.9998700000       21.3889200000
 Si         5.2184000000        7.3966600000        3.0648000000
 Si         4.8198500000       23.5431700000        9.1730000000
 Si        13.1060800000        7.3971700000       15.2606200000
 Si         4.8199200000        6.9979500000       21.3677200000
 Si         5.2184800000       23.1445700000        3.0436400000
 Si        13.5049200000       23.5432100000        9.1518600000
 Si        15.2811900000        0.8898700000       10.9280900000
 Si         3.0626400000       17.4355100000       19.6115600000
 Si        19.2145600000       21.3894300000        1.2884900000
 Si        15.2600600000       13.1063100000        7.3967600000
 Si        11.3266900000        9.1518200000        1.2884900000
 Si        15.2600000000        5.2185600000       10.9282200000
 Si        19.2147900000       21.3683600000       17.0358800000
 Si        23.5432000000        9.1729800000        4.8199200000
 Si        13.5049100000       21.3682700000       11.3267100000
 Si        15.2811700000       19.6131500000        5.2185600000
 Si        17.0368400000       21.3896800000       23.5427900000
 Si        15.2598700000       23.1449500000       17.4345800000
 Si        13.5049000000       21.3894500000        6.9981600000
 Si        15.2600200000       19.6131600000        0.8899300000
 Si        17.0368400000       21.3699700000       19.2130200000
 Si        15.2811700000       23.1445900000       13.1062500000
 Si        11.3267300000        1.2884400000        9.1518800000
 Si        10.9280700000       17.4349700000        3.0436300000
 Si        19.2147600000       17.0358100000       21.3680600000
 Si        19.6131100000        0.8899200000       15.2599700000
 Si        11.3266200000       17.0363100000        9.1730800000
 Si        19.6131600000       17.4348900000        3.0648000000
 Si        19.2143200000        1.2885100000       21.3892300000
 Si        10.9280800000        0.8899500000       15.2811700000
 Si         9.1518300000       23.5431800000       13.5048900000
 Si        21.3682800000        6.9980800000        4.8199000000
 Si         5.2187100000        3.0440100000       23.1445300000
 Si         9.1734900000       11.3279700000       17.0378500000
 Si        13.1921200000       15.2774500000       22.9711100000
 Si         9.1729300000       19.2144100000       13.5048700000
 Si         5.2184300000        3.0647000000        7.3967300000
 Si         0.8899500000       15.2593100000       19.6127200000
 Si        10.9280900000       15.2812300000        0.8899400000
 Si         9.1517700000       17.0363300000        6.9982200000
 Si         7.3967900000       15.2598100000       13.1066400000
 Si         9.1713700000       13.5063600000       19.2232500000
 Si        10.9280800000       15.2600900000        5.2185600000
 Si         9.1728700000       17.0362100000       11.3268600000
 Si         7.3878700000       15.2814800000       17.4272800000
 Si        13.1063400000       10.9281000000        3.0648000000
 Si        13.5048800000       19.2145200000        9.1730200000
 Si         5.2188500000       19.6127200000       15.2809400000
 Si         4.8136700000       11.3233600000       21.3824000000
 Si        13.1062800000       19.6131600000        3.0436400000
 Si         4.8198600000       19.2144400000        9.1518500000
 Si         5.2186700000       10.9281000000       15.2599600000
 Si        13.5200300000       11.3116700000       21.3507900000
 Si        15.2827500000       13.1037300000       23.1439900000
 Si         3.0646700000        5.2184700000        7.3967400000
 Si        19.2145500000        9.1730000000       13.5049400000
 Si        15.2599700000        0.8900500000       19.6130600000
 Si        11.3266500000       21.3682200000       13.5048700000
 Si        15.2801100000       17.4406300000       23.1267500000
 Si        19.2145500000        9.1517800000        4.8199200000
 Si        23.5429200000       21.3893300000       17.0360400000
 Si        13.5045200000        9.1526200000       23.5425700000
 Si        15.2818500000        7.3949800000       17.4335000000
 Si        17.0362600000        9.1729200000       11.3268700000
 Si        15.2600700000       10.9280900000        5.2185700000
 Si        13.5181400000        9.1780200000       19.2172200000
 Si        15.2598200000        7.3967600000       13.1065900000
 Si        17.0363300000        9.1517900000        6.9982000000
 Si        15.2812300000       10.9280900000        0.8899400000
 Si        11.4370000000       13.5260500000       21.3132100000
 Si        10.9281300000        5.2188800000       15.2600900000
 Si        19.2145100000        4.8198700000        9.1518600000
 Si        19.6131700000       13.1062700000        3.0436500000
 Si        11.3271800000        4.8203200000       21.3892800000
 Si        19.6131700000        5.2185600000       15.2811500000
 Si        19.2145700000       13.5049000000        9.1730500000
 Si        10.9280700000       13.1063300000        3.0648200000
 Si         9.1518300000       11.3266700000        1.2884800000
 Si        21.3682200000       19.2143900000       17.0362400000
 Si         5.2186100000       15.2599200000       10.9282900000
 Si         9.1729700000       23.5431800000        4.8199000000
 Si        13.1063200000        3.0647800000       10.9281400000
 Si         9.1729400000        6.9980700000        1.2884900000
 Si         5.1955400000       15.2800300000       19.5590500000
 Si         0.8898200000        3.0435900000        7.3967200000
 Si        23.1444700000        3.0648300000       25.3226700000
 Si        21.3681700000        4.8199400000       31.4310400000
 Si        19.6131500000        3.0435500000       37.5393700000
 Si        21.3894700000        1.2884300000       43.6476700000
 Si        23.1444900000        3.0437400000       29.6514200000
 Si        21.3893700000        4.8198500000       35.7597400000
 Si        19.6131700000        3.0647000000       41.8680200000
 Si        21.3683200000        1.2884200000       47.9763000000
 Si         0.8892100000       23.1447400000       27.4976900000
 Si         1.2883400000        6.9980600000       33.6060600000
 Si        17.4349000000        7.3966700000       39.7142200000
 Si        17.0363400000       23.5431600000       45.8225500000
 Si         0.8897100000        7.3966600000       27.4764700000
 Si        17.0363700000        6.9980800000       33.5848500000
 Si        17.4349800000       23.1445900000       39.6931400000
 Si         1.2884200000       23.5432400000       45.8014100000
 Si         3.0647200000        0.8898200000       47.5776600000
 Si        15.2812000000       17.4343700000       31.8299500000
 Si         6.9981800000       21.3894400000       37.9381100000
 Si         3.0435500000       13.1062900000       44.0462600000
 Si        23.5431200000        9.1518000000       37.9379800000
 Si         3.0435300000        5.2184400000       47.5776600000
 Si         6.9940100000       21.3746600000       29.2554700000
 Si        11.3267400000        9.1729400000       41.4693800000
 Si         1.2884200000       21.3683400000       47.9763200000
 Si         3.0646300000       19.6131700000       41.8681200000
 Si         4.8198100000       21.3895300000       35.7601000000
 Si         3.0428600000       23.1449700000       29.6517000000
 Si         1.2883900000       21.3895000000       43.6477100000
 Si         3.0434700000       19.6131500000       37.5396100000
 Si         4.8183600000       21.3689400000       31.4326500000
 Si         3.0639900000       23.1451700000       25.3223700000
 Si        23.5432100000        1.2884300000       45.8013900000
 Si        23.1445400000       17.4349300000       39.6931600000
 Si         6.9978600000       17.0363300000       33.5857000000
 Si         7.3969900000        0.8908100000       27.4765100000
 Si        23.5431400000       17.0363400000       45.8225500000
 Si         7.3966700000       17.4348900000       39.7143700000
 Si         6.9982500000        1.2886400000       33.6060200000
 Si        23.1443100000        0.8901300000       27.4975700000
 Si        21.3680000000       23.5433500000       25.7213200000
 Si         9.1518000000        6.9980600000       41.4694000000
 Si        17.4349800000        3.0436500000       35.3611100000
 Si        21.3891000000       11.3266600000       29.2527100000
 Si         0.8896000000       15.2810800000       35.3611800000
 Si        21.3891400000       19.2142700000       25.7212000000
 Si        17.4349400000        3.0646900000       44.0462300000
 Si        13.1065600000       15.2593700000       31.8291200000
 Si        23.1444700000       15.2811600000       37.5394300000
 Si        21.3682600000       17.0363300000       43.6476900000
 Si        19.6128200000       15.2596200000       25.3223300000
 Si        21.3892500000       13.5048300000       31.4309500000
 Si        23.1445700000       15.2600600000       41.8680500000
 Si        21.3894100000       17.0363300000       47.9763200000
 Si        19.6129600000       15.2810200000       29.6513100000
 Si        21.3681300000       13.5049100000       35.7597000000
 Si         0.8898000000       10.9280700000       39.7143000000
 Si         1.2884000000       19.2146000000       45.8225700000
 Si        17.4346400000       19.6127000000       27.4966100000
 Si        17.0360600000       11.3266200000       33.6054400000
 Si         0.8896900000       19.6131600000       39.6932300000
 Si        17.0363200000       19.2145300000       45.8014000000
 Si        17.4330800000       10.9277200000       27.4764500000
 Si         1.2882900000       11.3266100000       33.5849100000
 Si         3.0645800000       13.1061300000       35.3612300000
 Si        15.2811900000        5.2184500000       44.0462200000
 Si         6.9842200000        9.1393200000       25.7230600000
 Si         3.0435000000        0.8902800000       31.8299000000
 Si        23.5426100000       21.3683100000       25.7213500000
 Si         3.0433400000       17.4347900000       35.3613900000
 Si         6.9980800000        9.1517600000       41.4694200000
 Si        11.3230900000       21.3860600000       29.2667700000
 Si         1.2883900000        9.1517500000       35.7598100000
 Si         3.0633800000        7.3961700000       29.6524100000
 Si         4.8198300000        9.1729100000       47.9763100000
 Si         3.0435700000       10.9280700000       41.8680600000
 Si         1.2880600000        9.1729600000       31.4312200000
 Si         3.0433600000        7.3961200000       25.3227800000
 Si         4.8198400000        9.1517600000       43.6476900000
 Si         3.0646900000       10.9280000000       37.5394800000
 Si        23.5429500000       13.5048600000       33.5848000000
 Si        23.1444900000        5.2185600000       27.4765000000
 Si         6.9980400000        4.8198300000       45.8013900000
 Si         7.3966800000       13.1062000000       39.6932200000
 Si        23.5430200000        4.8198900000       33.6060000000
 Si         7.3970500000        5.2179800000       27.4982500000
 Si         6.9981100000       13.5049000000       45.8225600000
 Si        23.1445500000       13.1063000000       39.7142800000
 Si        21.3682500000       11.3266500000       37.9379500000
 Si         9.1509200000       19.2447100000       29.2887500000
 Si        17.4349400000       15.2600200000       47.5776600000
 Si        21.3894400000       23.5432300000       41.4694000000
 Si         0.8898000000        3.0647300000       47.5776600000
 Si        21.3893800000        6.9980600000       37.9379400000
 Si        17.4344100000       15.2802400000       31.8293400000
 Si        13.1063300000        3.0435800000       44.0462400000
 Si        10.9281500000        3.0648000000       37.5394300000
 Si         9.1517700000        4.8198500000       43.6476800000
 Si         7.3966800000        3.0443300000       25.3226100000
 Si         9.1730300000        1.2888400000       31.4313600000
 Si        10.9280900000        3.0436100000       41.8680600000
 Si         9.1729300000        4.8198300000       47.9763000000
 Si         7.3966400000        3.0649800000       29.6516000000
 Si         9.1519300000        1.2884600000       35.7598500000
 Si        13.1063900000       23.1446200000       39.7143100000
 Si        13.5049200000        6.9981000000       45.8225300000
 Si         5.2137500000        7.3906900000       27.5007500000
 Si         4.8197400000       23.5437100000       33.6065500000
 Si        13.1063500000        7.3966900000       39.6930800000
 Si         4.8198300000        6.9980300000       45.8014000000
 Si         5.2174000000       23.1463500000       27.4761200000
 Si        13.5050200000       23.5434900000       33.5852700000
 Si        15.2813100000        0.8899900000       35.3612500000
 Si         3.0646600000       17.4349200000       44.0462600000
 Si        19.2144100000       21.3895100000       25.7212800000
 Si        15.2589900000       13.1031600000       31.8257800000
 Si        11.3254800000        9.1486600000       25.7223900000
 Si        15.2600900000        5.2185500000       35.3610800000
 Si        19.2145500000       21.3682900000       41.4694000000
 Si        23.5429400000        9.1729200000       29.2527900000
 Si        13.5049400000       21.3683500000       35.7598300000
 Si        15.2830000000       19.6135600000       29.6527500000
 Si        17.0363300000       21.3894200000       47.9763100000
 Si        15.2601000000       23.1445900000       41.8680700000
 Si        13.5067100000       21.3897300000       31.4328200000
 Si        15.2593700000       19.6078200000       25.3179300000
 Si        17.0363400000       21.3682700000       43.6476900000
 Si        15.2812700000       23.1446300000       37.5394300000
 Si        11.3268600000        1.2884800000       33.5849800000
 Si        10.9226100000       17.4871200000       27.5324800000
 Si        19.2145200000       17.0363200000       45.8014000000
 Si        19.6131700000        0.8898300000       39.6931100000
 Si        11.3274000000       17.0359100000       33.6062800000
 Si        19.6130700000       17.4345800000       27.4974400000
 Si        19.2145900000        1.2884200000       45.8225400000
 Si        10.9281300000        0.8899000000       39.7143100000
 Si         9.1519000000       23.5432500000       37.9380000000
 Si        21.3680400000        6.9982100000       29.2527500000
 Si         5.2184400000        3.0435300000       47.5776600000
 Si         9.1730000000       11.3266400000       41.4694300000
 Si        13.1063200000       15.2812200000       47.5776700000
 Si         9.1729900000       19.2146300000       37.9380800000
 Si         5.2184600000        3.0648800000       31.8297400000
 Si         0.8898000000       15.2600600000       44.0462400000
 Si         9.1525500000       17.0329800000       31.4335100000
 Si         7.3967200000       15.2599800000       37.5395900000
 Si         9.1730000000       13.5048900000       43.6477100000
 Si        10.9287000000       15.2651500000       29.6528300000
 Si         9.1731600000       17.0362800000       35.7599900000
 Si         7.3966700000       15.2811300000       41.8681300000
 Si         9.1518500000       13.5049200000       47.9763100000
 Si        13.1063900000       10.9170200000       27.5043100000
 Si        13.5051000000       19.2144700000       33.6061300000
 Si         5.2184100000       19.6131600000       39.7143800000
 Si         4.8198500000       11.3266400000       45.8225600000
 Si        13.1108600000       19.6186300000       27.4784400000
 Si         4.8197600000       19.2144200000       33.5854700000
 Si         5.2184600000       10.9280500000       39.6931700000
 Si        13.5049300000       11.3267100000       45.8013900000
 Si        15.2812200000       13.1063000000       47.5776600000
 Si         3.0645700000        5.2183400000       31.8299500000
 Si        19.2144700000        9.1729400000       37.9378800000
 Si        15.2600800000        0.8898300000       44.0462400000
 Si        11.3267400000       21.3683500000       37.9380100000
 Si        15.2600200000       17.4349400000       47.5776600000
 Si        19.2141800000        9.1519500000       29.2526300000
 Si        23.5431400000       21.3895000000       41.4694300000
 Si        13.5049200000        9.1518300000       47.9763000000
 Si        15.2811900000        7.3966800000       41.8680100000
 Si        17.0362900000        9.1730600000       35.7595400000
 Si        15.2524700000       10.9165700000       29.6463600000
 Si        13.5049300000        9.1729700000       43.6476600000
 Si        15.2600700000        7.3967200000       37.5393000000
 Si        17.0369700000        9.1514900000       31.4314200000
 Si        15.2788800000       10.9280000000       25.3245200000
 Si        11.3267500000       13.5049200000       45.8014000000
 Si        10.9281000000        5.2185000000       39.6931300000
 Si        19.2145100000        4.8198800000       33.5847900000
 Si        19.6126000000       13.1060000000       27.4762700000
 Si        11.3266600000        4.8198500000       45.8225500000
 Si        19.6131400000        5.2184400000       39.7142600000
 Si        19.2143200000       13.5047800000       33.6059300000
 Si        10.8711300000       13.0411800000       27.5047300000
 Si         9.1299600000       11.2870700000       25.7456700000
 Si        21.3682500000       19.2145600000       41.4694100000
 Si         5.2183100000       15.2598500000       35.3614600000
 Si         9.1735000000       23.5440100000       29.2531000000
 Si        13.1064100000        3.0648400000       35.3611500000
 Si         9.1627400000        6.9905700000       25.7201100000
 Si         5.2184200000       15.2811700000       44.0462700000
 Si         0.8895600000        3.0437100000       31.8296700000
  O        21.8835100000        2.5495400000       -0.0000000000
  O        23.6785800000        1.8617400000        1.8617600000
  O        24.3537200000        3.5586400000       24.3537400000
  O        22.6452400000        4.3278400000        1.7804500000
  O        21.8834600000        3.5587500000        6.1082500000
  O        20.8742800000        3.5587200000       12.2164800000
  O        20.8742300000        2.5495600000       18.3247200000
  O         0.0000100000       21.8835000000        2.5495200000
  O         2.5494900000        6.1082600000        8.6577800000
  O        18.3248300000        8.6577500000       14.7659100000
  O        15.7751300000        0.0000400000       20.8742500000
  O        -0.0000100000        8.6577800000        3.5587400000
  O        15.7752300000        6.1082300000        9.6669800000
  O        18.3247600000       21.8835500000       15.7751000000
  O         2.5495600000       -0.0000900000       21.8835500000
  O        14.7660100000       18.3247600000        8.6577600000
  O         6.1082400000       20.8743100000       14.7660100000
  O         3.5571100000       12.2209100000       20.8682300000
  O        -0.0001100000        9.6669600000       14.7658900000
  O         3.5588100000        6.1082600000       21.8835100000
  O         6.1082600000       21.8834700000        3.5587400000
  O        12.2164900000        8.6581500000       15.7765600000
  O         2.5495400000       21.8835100000       -0.0000000000
  O         2.5496000000       20.8742900000       18.3247600000
  O         3.5587300000       20.8742800000       12.2165000000
  O         3.5587500000       21.8834700000        6.1082600000
  O        -0.0000000000        2.5494700000       21.8834900000
  O        21.8835400000       18.3247400000       15.7752100000
  O         6.1081600000       15.7752000000        9.6668500000
  O         8.6577800000       -0.0000100000        3.5587400000
  O         0.0002700000       15.7750400000       20.8742300000
  O         8.6577800000       18.3249900000       14.7658600000
  O         6.1082600000        2.5495000000        8.6577700000
  O        21.8835000000        0.0000100000        2.5495200000
  O         9.6670300000        6.1083600000       15.7754500000
  O        18.3247500000        3.5587200000        9.6669800000
  O        20.8742800000       12.2164900000        3.5587400000
  O        -0.0000000000       14.7660400000        9.6669900000
  O        20.8742500000       18.3247400000        2.5495200000
  O        18.3247200000        2.5495600000       20.8742100000
  O        12.2164900000       15.7752500000        8.6577700000
  O        21.8834800000       14.7660300000       12.2164800000
  O        21.8834600000       15.7751900000       18.3246700000
  O        20.8742400000       15.7752100000        0.0000000000
  O        20.8742900000       14.7660000000        6.1082500000
  O         2.5497900000       18.3247700000       20.8745400000
  O        18.3247400000       20.8742500000        2.5495200000
  O        15.7752500000       12.2164900000        8.6577700000
  O         0.0000400000       20.8742700000       15.7752300000
  O        15.7859000000       18.3380500000       21.8772500000
  O        18.3247600000        9.6669700000        3.5587400000
  O         2.5495300000       12.2165300000        9.6669900000
  O        14.7657600000        6.1083300000       20.8741500000
  O         6.1082400000        8.6577500000        2.5495200000
  O         3.5587400000       -0.0000100000        8.6577700000
  O         3.5587100000       18.3247500000        9.6670000000
  O         6.1082500000        9.6668400000       15.7751500000
  O        12.2165000000       20.8742800000        3.5587300000
  O         2.5495400000        9.6670200000       12.2164900000
  O         2.5494900000        8.6577900000        6.1082500000
  O         3.5587100000        8.6577500000       -0.0000000000
  O         3.5580800000        9.6661700000       18.3240500000
  O        21.8834700000        6.1082600000        3.5587400000
  O         6.1082800000        3.5587100000       21.8833800000
  O         8.6588500000       12.2155000000       15.7748000000
  O        -0.0000100000        3.5587400000        8.6577700000
  O         8.6577600000        6.1082400000        2.5495200000
  O         6.1097200000       14.7633100000       20.7934900000
  O        21.8834700000       12.2165100000       14.7659900000
  O         9.6669600000       18.3247400000        3.5587300000
  O        18.3249600000       15.7754500000       21.8834400000
  O        20.8742600000        0.0000400000       15.7752000000
  O        20.8743200000        6.1082300000       14.7659900000
  O        18.3247600000       14.7660100000        8.6577700000
  O        12.2164100000        3.5585700000       20.8743400000
  O         9.6670100000        2.5495400000       12.2165200000
  O         9.6669800000        3.5587000000       18.3247600000