ITEM: TIMESTEP
5000000
ITEM: NUMBER OF ATOMS
5487
ITEM: BOX BOUNDS pp pp pp
2.4900000000000000e-01 2.4248999999999999e+01
2.5950000000000001e-01 2.4259499999999999e+01
0.0000000000000000e+00 1.0536952658408562e+02
ITEM: ATOMS id mol type q x y z
1 1 2 0.417 19.197 18.1658 49.2274
2 1 2 0.417 19.9695 19.387 48.8385
3 1 5 -0.834 19.4503 18.715 48.4896
4 2 2 0.417 19.3422 21.4545 44.6504
5 2 2 0.417 19.1249 22.5307 43.6439
6 2 5 -0.834 19.0373 21.5642 43.7159
7 3 2 0.417 11.6521 5.2128 81.5196
8 3 2 0.417 11.259 3.73667 81.4407
9 3 5 -0.834 11.3684 4.51969 80.8764
10 4 2 0.417 15.5171 2.37741 83.8508
11 4 2 0.417 15.8605 3.26347 82.6716
12 4 5 -0.834 16.1458 3.06372 83.5778
13 5 2 0.417 3.45123 0.84559 63.19
14 5 2 0.417 4.8676 0.645055 62.7154
15 5 5 -0.834 4.29977 1.37244 63.0249
16 6 2 0.417 9.71067 5.55947 74.9966
17 6 2 0.417 9.35848 4.85166 73.8085
18 6 5 -0.834 10.2007 5.02833 74.3256
19 7 2 0.417 12.9643 18.5326 38.5796
20 7 2 0.417 13.8647 18.6041 37.3041
21 7 5 -0.834 13.6583 19.1042 38.1371
22 8 2 0.417 8.0992 20.7659 48.315
23 8 2 0.417 7.83675 19.6696 49.2665
24 8 5 -0.834 7.29509 20.261 48.7093
25 9 2 0.417 24.1635 24.2349 4.92611
26 9 2 0.417 1.26675 0.603323 4.17671
27 9 5 -0.834 0.904794 0.905446 4.96911
28 10 2 0.417 22.4851 15.7482 83.7853
29 10 2 0.417 21.3573 14.8724 84.4527
30 10 5 -0.834 21.5823 15.4355 83.6377
31 11 2 0.417 20.7908 3.36257 68.8649
32 11 2 0.417 19.9798 2.57426 67.8879
33 11 5 -0.834 20.7031 3.29277 67.9135
34 12 2 0.417 19.7754 17.4683 82.5741
35 12 2 0.417 19.5006 16.0184 82.7442
36 12 5 -0.834 19.0048 16.8535 82.636
37 13 2 0.417 22.1912 11.4499 86.8818
38 13 2 0.417 22.6414 12.3277 88.0168
39 13 5 -0.834 22.4794 12.3621 87.0218
40 14 2 0.417 2.29747 22.7268 85.179
41 14 2 0.417 0.881173 23.1548 84.7707
42 14 5 -0.834 1.36761 22.7953 85.5577
43 15 2 0.417 15.7439 14.8144 4.80049
44 15 2 0.417 15.0166 15.7571 5.62627
45 15 5 -0.834 15.0243 15.4229 4.64704
46 16 2 0.417 0.975864 1.3225 72.7745
47 16 2 0.417 2.29537 0.954413 73.313
48 16 5 -0.834 1.5818 0.54541 72.8307
49 17 2 0.417 15.5215 1.5338 80.2245
50 17 2 0.417 16.0923 0.634915 81.2017
51 17 5 -0.834 15.4271 0.615298 80.5342
52 18 2 0.417 23.3338 2.77835 72.9982
53 18 2 0.417 22.6293 2.19394 71.8298
54 18 5 -0.834 23.4493 2.09783 72.3125
55 19 2 0.417 17.3713 21.1571 40.6149
56 19 2 0.417 18.1067 22.2089 41.1349
57 19 5 -0.834 18.1075 21.6376 40.3482
58 20 2 0.417 8.3357 17.9137 78.9869
59 20 2 0.417 7.64096 17.6776 80.3946
60 20 5 -0.834 7.77196 18.3347 79.6404
61 21 2 0.417 18.7304 22.1934 84.2481
62 21 2 0.417 19.0622 22.0185 82.7945
63 21 5 -0.834 19.1215 22.7173 83.5207
64 22 2 0.417 7.69971 14.8094 37.2752
65 22 2 0.417 7.74504 13.3815 37.8746
66 22 5 -0.834 7.94364 13.8571 37.0407
67 23 2 0.417 20.9066 2.97815 71.551
68 23 2 0.417 20.2058 1.76282 71.2634
69 23 5 -0.834 20.9643 2.26093 70.9082
70 24 2 0.417 6.08836 3.09296 60.6229
71 24 2 0.417 4.90567 2.5129 61.2016
72 24 5 -0.834 5.39308 2.50601 60.3626
73 25 2 0.417 17.3226 19.2818 56.1339
74 25 2 0.417 17.1484 18.4591 54.8912
75 25 5 -0.834 16.8839 19.2997 55.2994
76 26 2 0.417 2.62086 21.6746 54.0623
77 26 2 0.417 3.12209 21.3372 52.6665
78 26 5 -0.834 2.87963 22.1341 53.2099
79 27 2 0.417 5.32549 19.5512 55.9796
80 27 2 0.417 5.50687 20.3676 57.2216
81 27 5 -0.834 5.96595 20.1686 56.3914
82 28 2 0.417 12.4 23.8047 63.5751
83 28 2 0.417 12.209 22.2861 63.6163
84 28 5 -0.834 12.265 23.0489 62.9764
85 29 2 0.417 19.8672 1.95405 78.7944
86 29 2 0.417 20.9474 2.90054 78.3057
87 29 5 -0.834 20.2131 2.41838 78.0244
88 30 2 0.417 15.4663 14.49 52.7336
89 30 2 0.417 16.7827 13.9978 52.5225
90 30 5 -0.834 15.8957 13.9227 52.1128
91 31 2 0.417 6.1081 6.86735 23.2858
92 31 2 0.417 5.88039 8.05204 24.136
93 31 5 -0.834 6.24384 7.17721 24.2127
94 32 2 0.417 22.9018 15.1802 76.0934
95 32 2 0.417 23.1768 13.8368 75.1776
96 32 5 -0.834 22.6464 14.2133 75.9041
97 33 2 0.417 18.4382 3.20866 72.754
98 33 2 0.417 16.8756 3.12444 72.21
99 33 5 -0.834 17.6311 3.7579 72.4853
100 34 2 0.417 18.6015 15.3223 55.5121
101 34 2 0.417 19.4836 16.4029 54.8134
102 34 5 -0.834 19.3506 15.4386 54.8779
103 35 2 0.417 15.7882 16.0148 89.6226
104 35 2 0.417 16.6868 17.1404 89.4158
105 35 5 -0.834 15.7288 16.9663 89.6399
106 36 2 0.417 6.10892 5.94487 52.7061
107 36 2 0.417 5.09092 4.93379 52.6741
108 36 5 -0.834 5.16976 5.9055 52.5019
109 37 2 0.417 18.7295 16.3091 51.1701
110 37 2 0.417 19.3544 17.6146 51.6748
111 37 5 -0.834 19.0048 17.1865 50.8581
112 38 2 0.417 21.6863 13.1901 77.2506
113 38 2 0.417 22.1629 12.8143 78.5399
114 38 5 -0.834 21.3408 12.7483 78.0259
115 39 2 0.417 0.348295 17.1268 69.2735
116 39 2 0.417 23.9905 15.6921 69.3394
117 39 5 -0.834 23.7057 16.5482 69.7681
118 40 2 0.417 1.61066 23.485 0.390016
119 40 2 0.417 2.80438 23.1948 104.913
120 40 5 -0.834 2.55011 23.5612 0.427773
121 41 2 0.417 15.1367 19.3431 81.2071
122 41 2 0.417 15.9206 18.0502 81.4803
123 41 5 -0.834 15.4477 18.5238 80.7756
124 42 2 0.417 20.4932 22.7104 78.5716
125 42 2 0.417 19.4695 23.591 79.1901
126 42 5 -0.834 19.5286 22.8006 78.6283
127 43 2 0.417 20.2268 1.43678 81.0478
128 43 2 0.417 19.0446 0.62137 80.9384
129 43 5 -0.834 19.6493 1.01679 80.3329
130 44 2 0.417 1.38208 5.04357 30.2554
131 44 2 0.417 0.309334 4.43226 31.2486
132 44 5 -0.834 1.15333 4.1786 30.7396
133 45 2 0.417 20.3949 5.63195 82.1824
134 45 2 0.417 19.3984 5.05117 83.0818
135 45 5 -0.834 20.2716 4.82559 82.6651
136 46 2 0.417 12.5902 17.8908 49.8633
137 46 2 0.417 13.483 18.7717 50.6672
138 46 5 -0.834 12.5582 18.5783 50.4682
139 47 2 0.417 6.53382 8.7828 72.9369
140 47 2 0.417 6.50688 7.72425 71.943
141 47 5 -0.834 5.98881 8.53517 72.1446
142 48 2 0.417 21.9137 17.705 67.4338
143 48 2 0.417 23.341 17.9436 67.2704
144 48 5 -0.834 22.5986 17.5483 66.7923
145 49 2 0.417 21.7543 12.1335 63.6982
146 49 2 0.417 21.9171 11.1507 62.5569
147 49 5 -0.834 21.5333 12.0509 62.7257
148 50 2 0.417 22.8864 2.07364 25.7539
149 50 2 0.417 22.1395 1.17013 24.8932
150 50 5 -0.834 23.0581 1.50311 24.9732
151 51 2 0.417 3.03892 16.6983 38.4633
152 51 2 0.417 3.6497 17.2171 39.7723
153 51 5 -0.834 3.58054 17.4311 38.8493
154 52 2 0.417 12.196 24.239 91.8089
155 52 2 0.417 10.7385 24.1164 91.7821
156 52 5 -0.834 11.4217 0.736074 91.4787
157 53 2 0.417 11.1307 5.45351 100.772
158 53 2 0.417 11.5565 6.47394 101.811
159 53 5 -0.834 10.8255 6.03916 101.498
160 54 2 0.417 17.5666 3.83288 44.0429
161 54 2 0.417 17.7509 5.12152 44.9622
162 54 5 -0.834 18.0478 4.70599 44.0932
163 55 2 0.417 22.531 3.51488 36.1325
164 55 2 0.417 21.1408 3.81685 36.3898
165 55 5 -0.834 21.6237 3.2952 35.8
166 56 2 0.417 11.9433 1.79466 82.8981
167 56 2 0.417 10.9803 1.14867 81.9099
168 56 5 -0.834 11.1888 2.02272 82.3198
169 57 2 0.417 14.9961 8.83906 55.5504
170 57 2 0.417 14.4965 9.63333 56.5059
171 57 5 -0.834 14.1127 9.12164 55.7822
172 58 2 0.417 3.97965 23.2995 74.3355
173 58 2 0.417 4.88155 22.5225 75.3112
174 58 5 -0.834 4.04505 22.413 74.7793
175 59 2 0.417 8.46998 1.00613 70.3081
176 59 2 0.417 7.43732 24.0142 70.64
177 59 5 -0.834 7.68024 0.585059 69.9068
178 60 2 0.417 2.24354 6.92596 81.8789
179 60 2 0.417 1.26566 7.96219 82.2781
180 60 5 -0.834 2.02519 7.78141 81.6217
181 61 2 0.417 1.06997 13.9637 81.2298
182 61 2 0.417 24.1318 15.0689 80.7327
183 61 5 -0.834 0.619954 14.3045 80.3999
184 62 2 0.417 18.3673 1.37239 66.7535
185 62 2 0.417 18.3862 0.973193 68.2292
186 62 5 -0.834 18.5932 1.71509 67.677
187 63 2 0.417 22.9362 20.8621 64.6763
188 63 2 0.417 21.6845 20.2342 65.1439
189 63 5 -0.834 22.3719 20.1575 64.4523
190 64 2 0.417 2.32372 18.2191 73.214
191 64 2 0.417 2.67224 19.7171 73.1925
192 64 5 -0.834 3.08951 18.7902 73.0635
193 65 2 0.417 9.40412 16.5814 35.8274
194 65 2 0.417 10.5396 15.6463 35.9615
195 65 5 -0.834 9.59966 15.6255 35.6993
196 66 2 0.417 8.52147 5.00155 63.8819
197 66 2 0.417 7.25448 5.76499 63.849
198 66 5 -0.834 7.86552 5.27703 63.306
199 67 2 0.417 0.716256 12.9022 79.1926
200 67 2 0.417 1.02154 11.3409 79.357
201 67 5 -0.834 0.804606 11.9828 78.6963
202 68 2 0.417 24.1311 5.27501 72.9174
203 68 2 0.417 0.273187 6.07937 71.6749
204 68 5 -0.834 23.6312 5.55021 72.1878
205 69 2 0.417 0.88017 22.7305 42.7614
206 69 2 0.417 1.95058 22.0438 41.9265
207 69 5 -0.834 1.26396 22.7769 41.865
208 70 2 0.417 7.8084 13.7899 90.7285
209 70 2 0.417 8.84441 14.7042 90.8229
210 70 5 -0.834 8.14781 14.5093 90.1585
211 71 2 0.417 22.4604 16.7368 93.5832
212 71 2 0.417 23.5768 16.9289 94.651
213 71 5 -0.834 22.7714 16.3739 94.4204
214 72 2 0.417 7.64882 11.5221 41.1744
215 72 2 0.417 6.92224 10.1577 40.7333
216 72 5 -0.834 7.65463 10.791 40.4767
217 73 2 0.417 23.6603 16.4513 101.082
218 73 2 0.417 23.2304 17.6147 102.021
219 73 5 -0.834 23.3136 17.3696 101.099
220 74 2 0.417 8.30013 11.6013 63.8265
221 74 2 0.417 9.75263 11.2573 63.5331
222 74 5 -0.834 8.92641 11.5486 63.1047
223 75 2 0.417 20.8945 21.53 105.081
224 75 2 0.417 21.1721 20.2606 0.562165
225 75 5 -0.834 21.4958 21.1599 0.42832
226 76 2 0.417 20.8329 16.1015 86.0076
227 76 2 0.417 20.6378 16.7948 84.691
228 76 5 -0.834 20.686 17.0143 85.6046
229 77 2 0.417 12.0132 18.5816 8.64746
230 77 2 0.417 13.0352 18.6246 9.71024
231 77 5 -0.834 12.2272 19.1142 9.41956
232 78 2 0.417 4.24445 21.3604 33.9932
233 78 2 0.417 4.90123 22.2876 32.9712
234 78 5 -0.834 4.88993 21.3187 33.2513
235 79 2 0.417 14.0754 20.9636 34.6215
236 79 2 0.417 14.6636 20.0488 35.7619
237 79 5 -0.834 14.8458 20.8809 35.2681
238 80 2 0.417 16.0795 14.2168 88.9269
239 80 2 0.417 17.3518 13.813 89.7115
240 80 5 -0.834 16.3792 13.9985 89.8078
241 81 2 0.417 22.0406 6.43827 69.9997
242 81 2 0.417 22.0709 5.70548 71.2897
243 81 5 -0.834 21.4092 5.97089 70.5779
244 82 2 0.417 3.11506 2.45813 0.699864
245 82 2 0.417 3.14724 1.01832 1.2025
246 82 5 -0.834 3.48498 1.903 1.41795
247 83 2 0.417 2.75431 22.1863 61.5881
248 83 2 0.417 1.7498 21.1548 61.2187
249 83 5 -0.834 1.78886 22.154 61.3141
250 84 2 0.417 14.2128 10.6285 25.6257
251 84 2 0.417 13.6377 11.4103 26.8973
252 84 5 -0.834 14.3733 10.7864 26.5905
253 85 2 0.417 13.5519 10.3368 73.8186
254 85 2 0.417 13.0364 11.2462 74.7907
255 85 5 -0.834 12.9318 11.0846 73.845
256 86 2 0.417 12.0051 0.428126 95.4989
257 86 2 0.417 12.8836 1.73838 95.2992
258 86 5 -0.834 12.9019 0.742163 95.3499
259 87 2 0.417 7.97219 6.14336 45.1226
260 87 2 0.417 9.4696 6.28275 44.7862
261 87 5 -0.834 8.57052 6.43299 44.384
262 88 2 0.417 4.23241 13.9378 73.6644
263 88 2 0.417 4.50658 12.4867 73.7425
264 88 5 -0.834 4.12436 13.1639 73.1438
265 89 2 0.417 4.17296 0.752765 46.9976
266 89 2 0.417 4.62618 23.3571 47.4071
267 89 5 -0.834 4.03482 23.8136 46.7788
268 90 2 0.417 7.16539 13.8567 65.2613
269 90 2 0.417 6.36245 14.2996 66.4135
270 90 5 -0.834 6.58724 14.5723 65.4916
271 91 2 0.417 24.0992 21.4554 59.1718
272 91 2 0.417 0.899752 22.681 59.6131
273 91 5 -0.834 0.299446 22.3497 58.8579
274 92 2 0.417 11.0424 9.30935 50.6142
275 92 2 0.417 9.59891 8.78967 51.1407
276 92 5 -0.834 10.419 8.54141 50.6783
277 93 2 0.417 5.64589 10.663 70.1473
278 93 2 0.417 4.90961 10.0693 71.2411
279 93 5 -0.834 4.73131 10.502 70.3935
280 94 2 0.417 7.02303 13.4516 41.6024
281 94 2 0.417 7.12635 13.0454 43.0138
282 94 5 -0.834 7.56712 12.857 42.1193
283 95 2 0.417 10.5632 0.721529 36.8243
284 95 2 0.417 8.99366 0.70082 37.2371
285 95 5 -0.834 9.68352 0.380272 36.6052
286 96 2 0.417 21.4996 4.58519 66.6151
287 96 2 0.417 22.3939 4.27392 65.3649
288 96 5 -0.834 21.9555 5.01843 65.8411
289 97 2 0.417 2.36532 19.7417 86.9658
290 97 2 0.417 3.19257 18.4417 86.914
291 97 5 -0.834 3.21559 19.3563 87.0779
292 98 2 0.417 5.70637 3.75091 63.8565
293 98 2 0.417 4.48587 3.0068 63.6493
294 98 5 -0.834 4.80226 3.86876 64.062
295 99 2 0.417 14.6529 13.1132 58.1498
296 99 2 0.417 14.7423 14.1668 59.0925
297 99 5 -0.834 15.186 13.4002 58.8817
298 100 2 0.417 23.984 17.4331 72.9699
299 100 2 0.417 23.6326 17.2712 71.4294
300 100 5 -0.834 23.6448 17.9649 72.1752
301 101 2 0.417 12.4045 13.86 2.27955
302 101 2 0.417 12.7877 12.5012 1.64213
303 101 5 -0.834 12.0024 13.0125 1.99036
304 102 2 0.417 16.6386 5.46406 40.0291
305 102 2 0.417 16.4282 6.45248 41.1766
306 102 5 -0.834 17.0638 6.20171 40.5051
307 103 2 0.417 0.397002 10.1826 46.2829
308 103 2 0.417 23.778 9.54525 47.4352
309 103 5 -0.834 23.7326 9.50314 46.4853
310 104 2 0.417 21.6657 21.7534 72.6533
311 104 2 0.417 20.913 22.555 73.5638
312 104 5 -0.834 21.4706 22.7059 72.7822
313 105 2 0.417 1.44047 11.2269 58.0129
314 105 2 0.417 24.1911 11.4429 58.8224
315 105 5 -0.834 0.46944 11.2795 57.8886
316 106 2 0.417 23.7423 1.75379 36.9965
317 106 2 0.417 23.4631 0.887954 38.1607
318 106 5 -0.834 22.9529 1.26821 37.3674
319 107 2 0.417 19.7782 12.8729 8.19808
320 107 2 0.417 18.3629 12.4812 8.34714
321 107 5 -0.834 19.1646 12.2094 7.86113
322 108 2 0.417 4.90755 3.52852 80.8222
323 108 2 0.417 3.60032 4.36679 80.969
324 108 5 -0.834 4.1673 3.89035 80.3403
325 109 2 0.417 19.2594 13.1741 66.0164
326 109 2 0.417 19.625 13.5152 67.3957
327 109 5 -0.834 19.8663 13.8055 66.4828
328 110 2 0.417 4.80043 9.49334 80.9418
329 110 2 0.417 4.02631 8.37508 81.2383
330 110 5 -0.834 4.98587 8.56431 81.1251
331 111 2 0.417 10.7599 19.778 41.6409
332 111 2 0.417 11.8722 20.6501 41.231
333 111 5 -0.834 11.5733 19.7505 41.1634
334 112 2 0.417 12.5919 14.9091 24.4755
335 112 2 0.417 11.3529 14.8549 23.6916
336 112 5 -0.834 11.6742 14.5985 24.53
337 113 2 0.417 5.91166 6.77851 45.5823
338 113 2 0.417 4.51263 6.26335 45.5428
339 113 5 -0.834 5.17391 6.66566 44.9419
340 114 2 0.417 3.45659 11.6454 70.6382
341 114 2 0.417 3.56747 12.9003 71.4843
342 114 5 -0.834 2.93573 12.5039 70.8286
343 115 2 0.417 1.1326 9.91263 50.3975
344 115 2 0.417 1.80975 9.78056 51.7966
345 115 5 -0.834 2.01502 9.88189 50.879
346 116 2 0.417 17.6686 8.36058 54.341
347 116 2 0.417 16.9402 9.46651 53.532
348 116 5 -0.834 16.8284 8.8789 54.3572
349 117 2 0.417 17.1164 6.49836 93.618
350 117 2 0.417 16.3116 6.25629 92.4954
351 117 5 -0.834 17.2538 6.16502 92.6623
352 118 2 0.417 1.76579 2.77611 31.4231
353 118 2 0.417 2.75311 1.74171 30.8012
354 118 5 -0.834 2.34693 2.00465 31.6922
355 119 2 0.417 12.9826 6.16534 74.2316
356 119 2 0.417 13.7455 5.31065 75.1779
357 119 5 -0.834 13.9358 6.02744 74.525
358 120 2 0.417 8.67395 19.869 86.1807
359 120 2 0.417 10.0825 19.4994 86.3944
360 120 5 -0.834 9.54779 20.206 86.0396
361 121 2 0.417 15.4375 2.28661 52.6246
362 121 2 0.417 14.0452 2.39759 52.3238
363 121 5 -0.834 14.9402 2.44733 51.8638
364 122 2 0.417 17.0637 14.6479 92.0115
365 122 2 0.417 18.3192 14.3464 91.1861
366 122 5 -0.834 18.0885 14.8511 91.9496
367 123 2 0.417 1.06012 12.6803 95.1975
368 123 2 0.417 1.51302 11.3417 95.3465
369 123 5 -0.834 1.06558 11.8528 94.6517
370 124 2 0.417 10.1653 4.28395 48.8916
371 124 2 0.417 10.9505 5.50122 49.051
372 124 5 -0.834 10.2635 5.16136 48.4472
373 125 2 0.417 3.79748 21.1296 40.3999
374 125 2 0.417 3.96259 21.1193 41.8729
375 125 5 -0.834 3.29156 21.0664 41.1751
376 126 2 0.417 20.0137 3.38853 86.0485
377 126 2 0.417 20.3687 4.35922 86.8876
378 126 5 -0.834 20.8168 3.90045 86.2119
379 127 2 0.417 19.2801 13.1188 52.9744
380 127 2 0.417 18.7805 14.4207 53.4212
381 127 5 -0.834 18.6346 13.788 52.6742
382 128 2 0.417 12.2494 9.21029 46.4575
383 128 2 0.417 13.3802 9.28366 45.4347
384 128 5 -0.834 12.5595 9.70623 45.6568
385 129 2 0.417 18.1275 9.26008 87.1138
386 129 2 0.417 18.2247 8.14768 88.0907
387 129 5 -0.834 18.717 8.91603 87.838
388 130 2 0.417 4.57884 17.0071 45.4372
389 130 2 0.417 4.9785 17.0692 43.9448
390 130 5 -0.834 4.88269 16.458 44.7012
391 131 2 0.417 12.6567 0.450053 34.1301
392 131 2 0.417 14.1384 0.600291 33.6705
393 131 5 -0.834 13.5692 0.657811 34.4149
394 132 2 0.417 14.305 7.69244 62.143
395 132 2 0.417 15.3264 8.73723 61.8572
396 132 5 -0.834 15.2547 7.77031 61.9079
397 133 2 0.417 20.4518 20.6426 81.3622
398 133 2 0.417 20.2563 19.6215 82.3993
399 133 5 -0.834 19.9325 20.49 82.2345
400 134 2 0.417 7.68223 15.3542 39.652
401 134 2 0.417 7.47966 16.7565 39.2059
402 134 5 -0.834 7.93384 15.9114 38.9254
403 135 2 0.417 19.6713 5.57731 8.29159
404 135 2 0.417 18.7641 6.08536 9.44404
405 135 5 -0.834 19.5297 5.51272 9.2321
406 136 2 0.417 6.47782 18.4947 85.9221
407 136 2 0.417 7.46188 17.9388 86.8248
408 136 5 -0.834 7.17841 18.7947 86.5085
409 137 2 0.417 3.36004 12.9167 41.949
410 137 2 0.417 4.41265 11.8811 42.4949
411 137 5 -0.834 4.33132 12.7644 42.0637
412 138 2 0.417 7.5498 23.0818 91.7447
413 138 2 0.417 6.25964 23.2098 90.9111
414 138 5 -0.834 6.80863 23.7391 91.6509
415 139 2 0.417 7.10079 21.4366 85.0164
416 139 2 0.417 6.98768 19.9813 84.9854
417 139 5 -0.834 7.01272 20.7152 84.3606
418 140 2 0.417 23.0315 22.2668 0.304793
419 140 2 0.417 23.5198 22.6351 1.68743
420 140 5 -0.834 23.6511 22.8475 0.767627
421 141 2 0.417 3.82762 17.642 66.4664
422 141 2 0.417 4.26615 19.0124 66.9129
423 141 5 -0.834 3.75376 18.1393 67.1904
424 142 2 0.417 8.98236 22.5589 62.7938
425 142 2 0.417 9.34298 23.4683 63.7735
426 142 5 -0.834 8.96353 23.4604 62.9253
427 143 2 0.417 6.06228 1.76037 78.6015
428 143 2 0.417 5.10035 0.757661 79.1253
429 143 5 -0.834 5.61607 0.973299 78.298
430 144 2 0.417 22.3098 16.4825 51.9789
431 144 2 0.417 22.3393 15.418 53.0802
432 144 5 -0.834 22.4708 15.4918 52.1024
433 145 2 0.417 4.07671 0.295126 81.129
434 145 2 0.417 5.53126 24.0422 81.4695
435 145 5 -0.834 4.93437 24.1681 80.6828
436 146 2 0.417 19.4865 6.1093 13.7922
437 146 2 0.417 19.0795 4.71788 13.3407
438 146 5 -0.834 19.1269 5.27146 14.1363
439 147 2 0.417 15.6344 10.1779 70.1534
440 147 2 0.417 15.3741 8.63904 70.2602
441 147 5 -0.834 15.7339 9.30823 69.6445
442 148 2 0.417 8.90386 19.8067 52.4036
443 148 2 0.417 8.49714 20.707 53.5025
444 148 5 -0.834 8.32799 20.5856 52.5334
445 149 2 0.417 11.0582 18.5417 6.49775
446 149 2 0.417 12.6523 18.3213 6.30305
447 149 5 -0.834 11.8514 18.0607 6.84115
448 150 2 0.417 14.6829 17.1695 80.114
449 150 2 0.417 13.9292 16.1325 81.0119
450 150 5 -0.834 14.2993 16.2451 80.1053
451 151 2 0.417 16.8545 5.74912 72.9387
452 151 2 0.417 17.0881 7.10744 73.7421
453 151 5 -0.834 16.8237 6.72495 72.8841
454 152 2 0.417 1.89433 3.05489 6.71082
455 152 2 0.417 1.70764 1.58705 6.28484
456 152 5 -0.834 1.99556 2.14828 7.04336
457 153 2 0.417 11.5356 13.0051 49.6248
458 153 2 0.417 11.4708 13.3501 51.1562
459 153 5 -0.834 11.908 13.6358 50.2868
460 154 2 0.417 17.3255 19.0312 46.438
461 154 2 0.417 17.8927 19.4127 47.7508
462 154 5 -0.834 17.0211 19.3694 47.2566
463 155 2 0.417 1.55011 2.96339 75.5462
464 155 2 0.417 0.633263 1.89125 76.1123
465 155 5 -0.834 1.5069 2.06045 75.7357
466 156 2 0.417 3.91328 6.69298 40.6232
467 156 2 0.417 3.24928 5.79742 39.6747
468 156 5 -0.834 3.64669 6.66564 39.7284
469 157 2 0.417 1.43661 18.9682 68.7826
470 157 2 0.417 2.06481 18.0992 67.7563
471 157 5 -0.834 1.16555 18.4033 68.0645
472 158 2 0.417 16.5087 6.58009 61.4098
473 158 2 0.417 17.744 6.27 62.2485
474 158 5 -0.834 17.2372 5.93433 61.5241
475 159 2 0.417 16.5876 1.41552 47.9012
476 159 2 0.417 15.2935 1.1848 48.7247
477 159 5 -0.834 15.951 1.85806 48.5008
478 160 2 0.417 7.51486 2.71097 54.5758
479 160 2 0.417 6.51626 2.71739 53.3723
480 160 5 -0.834 7.4446 2.82843 53.5619
481 161 2 0.417 22.4497 14.3587 92.6196
482 161 2 0.417 23.8436 13.7775 92.8042
483 161 5 -0.834 23.0657 13.7127 92.2422
484 162 2 0.417 14.8419 13.4738 76.443
485 162 2 0.417 14.0521 14.0498 75.2656
486 162 5 -0.834 14.6244 13.2475 75.5273
487 163 2 0.417 15.7335 23.9008 59.0619
488 163 2 0.417 14.9394 0.931769 59.6934
489 163 5 -0.834 15.491 0.778883 58.8917
490 164 2 0.417 8.13921 12.8337 76.4924
491 164 2 0.417 6.92244 13.4733 75.6837
492 164 5 -0.834 7.7791 12.9476 75.5535
493 165 2 0.417 1.7966 8.59307 88.2674
494 165 2 0.417 1.72191 7.25413 87.6718
495 165 5 -0.834 1.63433 8.18047 87.3804
496 166 2 0.417 21.4938 17.8483 98.9775
497 166 2 0.417 21.6668 18.389 100.375
498 166 5 -0.834 20.9639 18.2513 99.7061
499 167 2 0.417 11.0074 15.0886 59.5162
500 167 2 0.417 10.998 15.5994 61.044
501 167 5 -0.834 11.5373 15.4581 60.2434
502 168 2 0.417 8.46343 8.05221 40.3367
503 168 2 0.417 8.74075 6.73886 39.8043
504 168 5 -0.834 8.93416 7.69407 39.6246
505 169 2 0.417 11.9967 13.2608 27.2559
506 169 2 0.417 12.0883 12.8009 25.7503
507 169 5 -0.834 12.4378 12.6178 26.6437
508 170 2 0.417 14.0153 14.3014 87.1302
509 170 2 0.417 12.9866 13.1405 87.241
510 170 5 -0.834 13.0326 14.0728 87.005
511 171 2 0.417 15.3625 21.7655 65.6763
512 171 2 0.417 15.0774 22.3818 64.2876
513 171 5 -0.834 14.6393 22.2196 65.1887
514 172 2 0.417 18.6559 14.8846 43.0329
515 172 2 0.417 17.4364 14.3187 42.2034
516 172 5 -0.834 17.8557 15.2122 42.4695
517 173 2 0.417 17.2577 9.26716 50.5693
518 173 2 0.417 17.6211 7.86894 49.9797
519 173 5 -0.834 16.8583 8.47057 50.172
520 174 2 0.417 11.0469 17.5878 47.1497
521 174 2 0.417 10.6016 16.5466 46.1117
522 174 5 -0.834 10.9128 16.6269 47.0068
523 175 2 0.417 8.8949 22.8227 60.31
524 175 2 0.417 8.82937 24.0929 61.0898
525 175 5 -0.834 8.48125 23.6819 60.2284
526 176 2 0.417 14.9466 21.3945 87.1398
527 176 2 0.417 14.338 21.3021 85.8199
528 176 5 -0.834 14.0812 21.203 86.7035
529 177 2 0.417 23.4243 5.53182 61.4001
530 177 2 0.417 22.8216 6.33055 60.2237
531 177 5 -0.834 22.7606 5.4451 60.6644
532 178 2 0.417 9.20861 7.03667 15.8487
533 178 2 0.417 9.498 6.62687 17.2794
534 178 5 -0.834 9.51635 7.39594 16.7018
535 179 2 0.417 23.573 23.1057 49.5446
536 179 2 0.417 23.7412 22.2478 50.7477
537 179 5 -0.834 23.4648 22.1568 49.8383
538 180 2 0.417 14.0354 0.272398 56.4686
539 180 2 0.417 15.3428 0.486732 56.9706
540 180 5 -0.834 14.9837 24.1193 56.1755
541 181 2 0.417 3.27211 14.7585 99.71
542 181 2 0.417 2.2611 15.7611 99.9466
543 181 5 -0.834 2.67421 15.037 100.423
544 182 2 0.417 0.309723 2.16295 105.119
545 182 2 0.417 0.937068 3.437 0.314189
546 182 5 -0.834 1.17463 2.68964 104.998
547 183 2 0.417 18.7852 6.1447 54.7723
548 183 2 0.417 20.1039 6.85476 54.4429
549 183 5 -0.834 19.151 6.94581 54.3027
550 184 2 0.417 8.31313 2.8981 86.6511
551 184 2 0.417 8.49113 2.00155 85.546
552 184 5 -0.834 8.02478 2.81127 85.6842
553 185 2 0.417 18.9337 22.6667 91.1494
554 185 2 0.417 19.9715 23.6177 90.8626
555 185 5 -0.834 19.4536 22.987 90.3645
556 186 2 0.417 5.63163 21.7362 39.0192
557 186 2 0.417 4.51674 21.0999 38.3073
558 186 5 -0.834 4.66908 21.8316 38.9475
559 187 2 0.417 10.3148 0.532795 61.685
560 187 2 0.417 11.1213 1.71957 62.2341
561 187 5 -0.834 10.6519 1.40761 61.4342
562 188 2 0.417 23.6746 5.46753 7.42388
563 188 2 0.417 23.4635 3.93128 7.79764
564 188 5 -0.834 23.7177 4.57041 7.02949
565 189 2 0.417 2.12723 6.22683 45.4291
566 189 2 0.417 0.885197 6.79269 44.8684
567 189 5 -0.834 1.84975 6.8254 44.7335
568 190 2 0.417 11.4385 5.83175 92.9575
569 190 2 0.417 12.3919 4.99982 93.6038
570 190 5 -0.834 12.3411 5.50372 92.7844
571 191 2 0.417 22.5333 5.70495 54.7922
572 191 2 0.417 22.5525 7.12511 54.5514
573 191 5 -0.834 21.9237 6.3821 54.3767
574 192 2 0.417 23.6491 15.0696 87.7845
575 192 2 0.417 23.4828 13.7921 86.9342
576 192 5 -0.834 24.1707 14.4577 87.2487
577 193 2 0.417 17.5297 17.4289 23.9932
578 193 2 0.417 17.8615 16.9824 22.5944
579 193 5 -0.834 17.4588 16.7131 23.4211
580 194 2 0.417 15.1693 3.19469 49.1848
581 194 2 0.417 14.5787 3.61784 50.562
582 194 5 -0.834 14.565 3.90322 49.6373
583 195 2 0.417 23.0569 20.1881 56.5501
584 195 2 0.417 24.0171 19.9293 57.6363
585 195 5 -0.834 24.0363 20.3092 56.66
586 196 2 0.417 11.3449 2.53065 46.2163
587 196 2 0.417 11.2322 2.75487 47.6962
588 196 5 -0.834 11.7893 3.06909 46.9211
589 197 2 0.417 6.76666 7.91105 42.2268
590 197 2 0.417 7.97953 7.49656 43.042
591 197 5 -0.834 7.71667 7.94622 42.2265
592 198 2 0.417 18.3404 23.8777 46.281
593 198 2 0.417 17.0262 23.3801 46.4959
594 198 5 -0.834 17.4144 24.2341 46.3322
595 199 2 0.417 19.7725 9.51966 78.3606
596 199 2 0.417 20.1646 10.9697 78.042
597 199 5 -0.834 19.3443 10.4214 78.2413
598 200 2 0.417 8.75941 1.69596 52.6838
599 200 2 0.417 9.62202 0.731734 52.0567
600 200 5 -0.834 9.75924 1.56418 52.585
601 201 2 0.417 17.1379 9.45615 33.5514
602 201 2 0.417 17.1015 9.40961 32.0103
603 201 5 -0.834 16.6727 9.01651 32.841
604 202 2 0.417 16.2501 12.8885 74.2408
605 202 2 0.417 16.5766 11.9607 73.0531
606 202 5 -0.834 16.5909 12.8891 73.3264
607 203 2 0.417 22.7453 7.92101 56.9778
608 203 2 0.417 23.2355 6.94487 58.0416
609 203 5 -0.834 23.5063 7.35289 57.2335
610 204 2 0.417 3.58299 13.4869 85.8895
611 204 2 0.417 4.8961 12.8386 85.5399
612 204 5 -0.834 4.3278 13.5918 85.3216
613 205 2 0.417 9.66309 15.2459 78.3283
614 205 2 0.417 10.526 14.2318 79.1867
615 205 5 -0.834 9.99173 14.3273 78.3413
616 206 2 0.417 16.2766 2.54643 61.9193
617 206 2 0.417 17.0475 3.8179 61.8169
618 206 5 -0.834 16.9189 2.97938 61.3254
619 207 2 0.417 6.52317 19.61 78.2333
620 207 2 0.417 5.3631 20.2791 77.9306
621 207 5 -0.834 5.85519 19.5989 77.5146
622 208 2 0.417 19.3442 3.25652 94.5277
623 208 2 0.417 20.4083 3.1398 93.4599
624 208 5 -0.834 19.5849 3.50275 93.6177
625 209 2 0.417 9.39247 17.2509 38.6552
626 209 2 0.417 10.8318 17.3319 38.8523
627 209 5 -0.834 10.0841 17.9323 38.6829
628 210 2 0.417 14.1071 17.207 92.2653
629 210 2 0.417 15.1735 17.5065 91.2876
630 210 5 -0.834 14.7173 17.8792 92.0869
631 211 2 0.417 18.0986 11.6215 82.3031
632 211 2 0.417 17.8422 10.4946 83.3725
633 211 5 -0.834 17.6687 11.4678 83.2395
634 212 2 0.417 15.3445 18.2124 43.3178
635 212 2 0.417 15.0819 19.1107 42.2261
636 212 5 -0.834 15.2224 19.187 43.1634
637 213 2 0.417 7.55823 8.99783 19.4974
638 213 2 0.417 7.55285 9.2676 20.9688
639 213 5 -0.834 7.24347 8.65097 20.3101
640 214 2 0.417 21.9703 0.500195 87.8697
641 214 2 0.417 22.4838 0.449589 89.2322
642 214 5 -0.834 22.3863 1.09689 88.5046
643 215 2 0.417 16.8776 20.2172 90.6973
644 215 2 0.417 18.2588 20.0413 91.2966
645 215 5 -0.834 17.6758 19.7427 90.5826
646 216 2 0.417 11.8978 8.38292 87.3194
647 216 2 0.417 12.1009 8.5766 88.8147
648 216 5 -0.834 12.3645 8.00315 88.0709
649 217 2 0.417 7.04372 20.033 76.0293
650 217 2 0.417 8.32868 19.4816 75.6429
651 217 5 -0.834 7.81658 20.3102 75.5122
652 218 2 0.417 11.9933 7.39139 82.9048
653 218 2 0.417 11.7975 6.14191 83.5447
654 218 5 -0.834 11.7196 6.5078 82.7027
655 219 2 0.417 16.6074 16.5434 37.5012
656 219 2 0.417 17.1246 15.4534 38.4752
657 219 5 -0.834 17.0503 16.4848 38.356
658 220 2 0.417 14.5307 0.419834 90.989
659 220 2 0.417 15.6429 23.9885 90.098
660 220 5 -0.834 15.0763 0.804379 90.2614
661 221 2 0.417 12.3777 15.5539 49.527
662 221 2 0.417 12.3358 16.2401 48.2254
663 221 5 -0.834 12.8462 16.2276 49.0153
664 222 2 0.417 18.6016 17.1867 67.423
665 222 2 0.417 18.1139 16.5299 66.1767
666 222 5 -0.834 17.8219 16.7303 67.0908
667 223 2 0.417 4.219 1.57498 3.08034
668 223 2 0.417 5.1164 1.68862 4.24544
669 223 5 -0.834 4.52723 1.00551 3.79431
670 224 2 0.417 7.92918 11.4634 36.4534
671 224 2 0.417 7.78101 10.6157 35.3728
672 224 5 -0.834 8.2217 11.4326 35.4965
673 225 2 0.417 23.5438 10.7142 40.0131
674 225 2 0.417 23.1986 11.5042 41.3077
675 225 5 -0.834 23.9298 11.3852 40.6478
676 226 2 0.417 8.329 9.24015 23.5034
677 226 2 0.417 8.57303 10.6956 23.7563
678 226 5 -0.834 7.90204 10.0709 23.3088
679 227 2 0.417 1.25549 20.3874 37.7756
680 227 2 0.417 1.53314 19.1607 36.7484
681 227 5 -0.834 1.5921 20.1571 36.8426
682 228 2 0.417 14.4175 24.1245 54.4915
683 228 2 0.417 13.372 0.832117 53.7544
684 228 5 -0.834 13.9711 24.1208 53.652
685 229 2 0.417 10.8802 5.45547 51.354
686 229 2 0.417 10.2127 6.78416 51.0047
687 229 5 -0.834 10.0146 5.93743 51.3886
688 230 2 0.417 6.97752 17.3027 84.0368
689 230 2 0.417 8.4033 16.9604 84.3605
690 230 5 -0.834 7.84729 17.1969 83.5874
691 231 2 0.417 6.5509 5.21526 39.4208
692 231 2 0.417 7.72503 4.5095 39.8601
693 231 5 -0.834 7.44239 5.41746 39.6918
694 232 2 0.417 15.3525 14.2242 50.4749
695 232 2 0.417 14.4586 14.9424 49.5539
696 232 5 -0.834 15.1043 14.2321 49.5198
697 233 2 0.417 10.0253 24.03 33.2507
698 233 2 0.417 10.1681 24.2108 34.717
699 233 5 -0.834 10.7118 0.298983 33.9269
700 234 2 0.417 17.707 20.815 88.2044
701 234 2 0.417 16.4036 20.2632 87.7594
702 234 5 -0.834 16.7691 21.0576 88.0798
703 235 2 0.417 11.8115 7.985 71.7041
704 235 2 0.417 13.0705 7.87743 70.947
705 235 5 -0.834 12.1298 7.77913 70.7901
706 236 2 0.417 7.51697 4.72418 42.1673
707 236 2 0.417 7.62081 5.71236 43.3005
708 236 5 -0.834 7.06994 5.02867 42.9186
709 237 2 0.417 23.405 0.428793 0.531661
710 237 2 0.417 22.0583 1.20718 0.535599
711 237 5 -0.834 22.9684 1.27484 0.187916
712 238 2 0.417 23.4808 15.5453 64.9231
713 238 2 0.417 23.2798 15.5507 66.3606
714 238 5 -0.834 23.5686 14.9419 65.697
715 239 2 0.417 20.5624 11.3559 69.8569
716 239 2 0.417 21.8164 11.0321 69.2933
717 239 5 -0.834 21.1645 11.6891 69.1488
718 240 2 0.417 12.9415 10.7206 49.4954
719 240 2 0.417 12.0126 9.70048 49.0409
720 240 5 -0.834 12.0069 10.4543 49.6632
721 241 2 0.417 23.7497 5.69043 77.6764
722 241 2 0.417 23.2874 4.42346 77.9371
723 241 5 -0.834 23.665 4.82252 77.1936
724 242 2 0.417 0.65646 12.9832 51.543
725 242 2 0.417 1.88628 12.7224 50.738
726 242 5 -0.834 0.950642 12.7647 50.6038
727 243 2 0.417 6.29701 21.2572 70.6038
728 243 2 0.417 7.30896 20.2873 70.7783
729 243 5 -0.834 7.20915 21.1397 70.2971
730 244 2 0.417 21.5653 13.6229 86.3514
731 244 2 0.417 20.0471 13.7114 85.8861
732 244 5 -0.834 20.854 14.2031 85.9005
733 245 2 0.417 3.97971 14.0037 46.8282
734 245 2 0.417 4.17168 14.9174 47.9089
735 245 5 -0.834 3.6285 14.2188 47.7071
736 246 2 0.417 9.16521 1.45298 90.9795
737 246 2 0.417 8.93822 0.638065 89.7489
738 246 5 -0.834 8.71268 1.4763 90.1071
739 247 2 0.417 7.22185 5.0986 72.7359
740 247 2 0.417 7.20326 3.66775 73.2345
741 247 5 -0.834 7.68264 4.51554 73.3686
742 248 2 0.417 15.8375 8.86063 36.8876
743 248 2 0.417 15.7171 10.1597 35.9632
744 248 5 -0.834 15.2109 9.3368 36.275
745 249 2 0.417 0.480145 9.02074 92.2298
746 249 2 0.417 0.577713 10.6261 92.1896
747 249 5 -0.834 0.632501 9.80518 91.6721
748 250 2 0.417 9.00475 8.22078 37.9717
749 250 2 0.417 9.11115 9.68961 37.3995
750 250 5 -0.834 9.00083 8.73103 37.0986
751 251 2 0.417 0.827078 18.0866 64.6467
752 251 2 0.417 24.2233 19.324 63.8744