ITEM: TIMESTEP
4500000
ITEM: NUMBER OF ATOMS
4761
ITEM: BOX BOUNDS pp pp pp
0.0000000000000000e+00 2.4433001000000001e+01
0.0000000000000000e+00 2.4433001000000001e+01
0.0000000000000000e+00 8.6882897779454566e+01
ITEM: ATOMS id mol type q x y z 
1 1 1 -0.834 13.6044 5.23612 21.0271 
2 1 1 -0.834 9.02943 9.65513 67.2319 
3 1 1 -0.834 17.4212 21.4737 74.6455 
4 1 1 -0.834 17.201 8.99996 16.6551 
5 1 1 -0.834 3.29189 1.59119 63.6237 
6 1 1 -0.834 17.49 8.81819 77.6236 
7 1 1 -0.834 17.1553 22.1785 70.7186 
8 1 1 -0.834 11.2981 5.38997 69.5251 
9 1 1 -0.834 13.8529 7.19372 24.5224 
10 1 1 -0.834 1.81989 13.9656 0.388414 
11 1 1 -0.834 4.21435 21.2165 38.5956 
12 1 1 -0.834 8.04711 23.9353 35.4311 
13 1 1 -0.834 7.38896 5.21346 61.2621 
14 1 1 -0.834 10.8752 22.4845 79.7893 
15 1 1 -0.834 20.7298 23.6718 42.3178 
16 1 1 -0.834 16.6571 22.4642 66.2668 
17 1 1 -0.834 13.4453 7.61862 86.3663 
18 1 1 -0.834 4.16629 20.9015 70.8392 
19 1 1 -0.834 2.74168 5.43413 63.1926 
20 1 1 -0.834 10.8093 16.6113 10.7637 
21 1 1 -0.834 23.346 10.2795 18.4961 
22 1 1 -0.834 18.8266 18.6283 0.562029 
23 1 1 -0.834 5.70183 17.7548 22.9133 
24 1 1 -0.834 9.55816 6.19599 59.9037 
25 1 1 -0.834 3.15986 2.39509 60.9663 
26 1 1 -0.834 21.9268 9.32866 37.7926 
27 1 1 -0.834 5.70358 2.51069 7.64514 
28 1 1 -0.834 23.2284 11.104 81.8205 
29 1 1 -0.834 0.772103 2.89228 5.73697 
30 1 1 -0.834 23.2679 21.6111 42.5731 
31 1 1 -0.834 4.4003 6.01358 79.28 
32 1 1 -0.834 8.9984 10.3002 47.3323 
33 1 1 -0.834 19.8871 23.7213 75.9906 
34 1 1 -0.834 7.68616 11.964 66.8723 
35 1 1 -0.834 23.3411 14.6757 46.5052 
36 1 1 -0.834 7.44705 12.3416 62.8424 
37 1 1 -0.834 23.6417 6.20051 60.5156 
38 1 1 -0.834 24.418 0.054991 65.6385 
39 1 1 -0.834 0.500567 4.04865 8.16228 
40 1 1 -0.834 12.8766 12.3592 45.2514 
41 1 1 -0.834 23.4385 18.3375 76.6129 
42 1 1 -0.834 17.8181 10.9769 75.8476 
43 1 1 -0.834 11.1485 1.04378 19.9635 
44 1 1 -0.834 3.69798 5.92932 35.6235 
45 1 1 -0.834 22.8987 22.2528 75.7086 
46 1 1 -0.834 2.39809 16.1611 67.5835 
47 1 1 -0.834 10.8166 23.1914 69.0499 
48 1 1 -0.834 19.4708 17.7006 79.2558 
49 1 1 -0.834 17.4795 19.2468 54.0093 
50 1 1 -0.834 16.8245 19.5997 72.3825 
51 1 1 -0.834 6.62324 19.4082 70.9817 
52 1 1 -0.834 23.8444 13.5963 53.0673 
53 1 1 -0.834 7.86469 2.34431 32.7411 
54 1 1 -0.834 1.52337 7.79712 51.3585 
55 1 1 -0.834 13.9355 0.629815 49.1051 
56 1 1 -0.834 7.31577 9.28825 69.232 
57 1 1 -0.834 6.09438 11.2829 4.53115 
58 1 1 -0.834 20.3981 5.37922 38.5253 
59 1 1 -0.834 17.0547 1.01351 81.8827 
60 1 1 -0.834 22.412 5.58717 47.9701 
61 1 1 -0.834 1.26814 22.6316 73.6936 
62 1 1 -0.834 8.36607 8.36891 4.04898 
63 1 1 -0.834 4.44638 5.59551 4.72863 
64 1 1 -0.834 4.6509 3.70913 34.4803 
65 1 1 -0.834 4.58505 5.1341 29.554 
66 1 1 -0.834 0.612584 0.56076 9.01484 
67 1 1 -0.834 20.1167 1.6876 43.8306 
68 1 1 -0.834 10.0221 20.7134 45.9423 
69 1 1 -0.834 16.2137 20.8246 78.0205 
70 1 1 -0.834 0.670692 21.088 1.63086 
71 1 1 -0.834 19.7072 12.7955 14.7352 
72 1 1 -0.834 13.3807 14.1037 73.4481 
73 1 1 -0.834 10.9646 7.12052 28.2517 
74 1 1 -0.834 21.9621 9.42976 46.5201 
75 1 1 -0.834 14.7908 12.8853 65.9005 
76 1 1 -0.834 2.05205 5.85452 80.4939 
77 1 1 -0.834 2.03213 17.6314 86.665 
78 1 1 -0.834 11.0433 14.961 46.0008 
79 1 1 -0.834 6.12908 3.39855 68.9038 
80 1 1 -0.834 4.51863 10.458 43.6379 
81 1 1 -0.834 15.9457 16.0866 73.5695 
82 1 1 -0.834 4.58282 17.1199 78.8955 
83 1 1 -0.834 6.56083 20.8885 47.9892 
84 1 1 -0.834 11.1595 13.5576 68.3658 
85 1 1 -0.834 9.74688 3.82799 45.1617 
86 1 1 -0.834 14.2453 5.57783 72.0277 
87 1 1 -0.834 1.33489 3.1832 30.1124 
88 1 1 -0.834 4.51727 9.93164 46.6922 
89 1 1 -0.834 0.4819 7.43738 58.4558 
90 1 1 -0.834 6.86008 1.36792 72.5234 
91 1 1 -0.834 22.7897 17.6021 0.244038 
92 1 1 -0.834 7.77575 11.7777 49.0894 
93 1 1 -0.834 23.3984 12.1298 47.8984 
94 1 1 -0.834 14.4819 21.6895 58.782 
95 1 1 -0.834 5.16485 8.31964 78.3932 
96 1 1 -0.834 2.3413 14.206 49.2619 
97 1 1 -0.834 5.28704 16.9092 73.6553 
98 1 1 -0.834 16.276 16.79 29.439 
99 1 1 -0.834 22.5208 11.4141 78.8731 
100 1 1 -0.834 5.6694 15.4117 24.4338 
101 1 1 -0.834 20.7854 19.7833 66.7619 
102 1 1 -0.834 21.4338 19.4445 77.9394 
103 1 1 -0.834 22.9022 22.3659 78.4328 
104 1 1 -0.834 22.6292 16.9193 43.8736 
105 1 1 -0.834 23.9028 18.7813 29.7307 
106 1 1 -0.834 0.0851228 9.62673 69.1679 
107 1 1 -0.834 1.32852 20.0101 61.2932 
108 1 1 -0.834 10.5991 12.5886 71.1257 
109 1 1 -0.834 1.25436 20.2341 43.5803 
110 1 1 -0.834 17.2273 6.6397 44.5512 
111 1 1 -0.834 13.9795 11.9677 57.2736 
112 1 1 -0.834 4.83444 19.7899 81.3644 
113 1 1 -0.834 16.2115 18.8761 63.3354 
114 1 1 -0.834 1.56058 15.0286 82.5777 
115 1 1 -0.834 4.87531 22.8321 61.0346 
116 1 1 -0.834 7.8592 11.729 72.5504 
117 1 1 -0.834 24.239 22.5276 58.0057 
118 1 1 -0.834 4.32073 21.3302 15.5985 
119 1 1 -0.834 17.4514 16.0374 54.6579 
120 1 1 -0.834 13.9564 11.612 10.4386 
121 1 1 -0.834 23.8194 3.01365 35.1171 
122 1 1 -0.834 22.0874 22.9134 63.7686 
123 1 1 -0.834 20.1769 21.0498 53.2109 
124 1 1 -0.834 9.43723 17.4069 39.3705 
125 1 1 -0.834 16.9311 22.0841 57.9715 
126 1 1 -0.834 20.8819 13.4739 77.7834 
127 1 1 -0.834 23.4999 16.7092 55.9941 
128 1 1 -0.834 6.78632 16.8391 80.3163 
129 1 1 -0.834 14.2045 14.1839 50.2197 
130 1 1 -0.834 20.6733 19.3207 58.3783 
131 1 1 -0.834 20.8282 18.6015 64.1261 
132 1 1 -0.834 19.2113 5.11303 83.1968 
133 1 1 -0.834 4.39136 15.9676 53.6616 
134 1 1 -0.834 5.4113 2.77544 11.4258 
135 1 1 -0.834 7.09193 18.3356 82.7728 
136 1 1 -0.834 16.7205 17.7931 75.4597 
137 1 1 -0.834 8.17325 3.94478 48.6592 
138 1 1 -0.834 15.4001 20.3165 60.9566 
139 1 1 -0.834 10.1216 9.16635 22.6492 
140 1 1 -0.834 20.1486 2.04911 56.2046 
141 1 1 -0.834 5.85985 10.2546 61.3498 
142 1 1 -0.834 9.56781 18.8324 72.1741 
143 1 1 -0.834 5.64416 10.437 50.4288 
144 1 1 -0.834 4.31632 24.0851 77.7297 
145 1 1 -0.834 19.2435 6.20368 64.1397 
146 1 1 -0.834 13.3665 2.09094 53.5684 
147 1 1 -0.834 20.8093 16.5623 58.4662 
148 1 1 -0.834 2.01434 3.15598 35.9675 
149 1 1 -0.834 23.8731 16.7522 53.2714 
150 1 1 -0.834 7.981 7.97917 65.5128 
151 1 1 -0.834 7.89226 11.5129 55.3619 
152 1 1 -0.834 10.9348 6.96356 85.1703 
153 1 1 -0.834 3.21859 1.39602 51.9098 
154 1 1 -0.834 10.7311 0.11134 61.0397 
155 1 1 -0.834 18.8242 15.1397 63.8302 
156 1 1 -0.834 15.1471 19.956 8.81099 
157 1 1 -0.834 6.50111 18.2088 53.3661 
158 1 1 -0.834 6.01947 14.5533 72.4465 
159 1 1 -0.834 19.5357 4.79436 44.0652 
160 1 1 -0.834 11.8007 20.1866 64.5515 
161 1 1 -0.834 15.0325 4.84555 86.2936 
162 1 1 -0.834 17.1017 5.95395 23.0471 
163 1 1 -0.834 3.04855 17.6953 55.6061 
164 1 1 -0.834 5.29222 11.2654 78.7558 
165 1 1 -0.834 1.95141 14.0815 23.69 
166 1 1 -0.834 19.0743 20.9137 76.9475 
167 1 1 -0.834 8.96625 4.17098 76.5768 
168 1 1 -0.834 14.5296 18.0153 31.6566 
169 1 1 -0.834 14.2303 10.8055 33.3924 
170 1 1 -0.834 19.1357 19.0392 31.0902 
171 1 1 -0.834 6.50885 16.0225 66.052 
172 1 1 -0.834 17.8051 22.7656 43.2716 
173 1 1 -0.834 18.3417 14.6245 45.2365 
174 1 1 -0.834 6.64028 21.207 66.8085 
175 1 1 -0.834 22.2775 12.9717 13.7258 
176 1 1 -0.834 3.70215 22.8936 55.1109 
177 1 1 -0.834 1.62928 9.27172 14.9489 
178 1 1 -0.834 19.1533 8.26762 38.0896 
179 1 1 -0.834 7.21154 13.296 25.227 
180 1 1 -0.834 17.2521 12.0923 44.897 
181 1 1 -0.834 22.8748 1.30692 31.5146 
182 1 1 -0.834 18.4774 9.31687 44.1787 
183 1 1 -0.834 9.6574 3.53964 51.1461 
184 1 1 -0.834 1.03136 20.3222 24.7846 
185 1 1 -0.834 10.5668 9.79661 77.5104 
186 1 1 -0.834 12.4763 9.67164 69.6295 
187 1 1 -0.834 4.0882 0.905376 6.32173 
188 1 1 -0.834 20.4346 11.3914 66.4395 
189 1 1 -0.834 15.4126 14.057 12.3051 
190 1 1 -0.834 18.13 5.69362 56.4115 
191 1 1 -0.834 14.0567 21.1315 71.9036 
192 1 1 -0.834 13.1306 14.1991 9.87324 
193 1 1 -0.834 14.3278 6.47492 65.9583 
194 1 1 -0.834 20.7505 1.26317 73.3392 
195 1 1 -0.834 11.8405 8.64549 62.8646 
196 1 1 -0.834 18.7529 23.2187 28.9356 
197 1 1 -0.834 20.062 5.00907 16.9721 
198 1 1 -0.834 19.857 10.8961 47.6556 
199 1 1 -0.834 17.1527 17.0044 44.585 
200 1 1 -0.834 23.318 21.4324 5.35774 
201 1 1 -0.834 21.9243 20.0305 85.7284 
202 1 1 -0.834 3.29578 7.70835 33.263 
203 1 1 -0.834 3.55776 19.5058 68.741 
204 1 1 -0.834 5.69855 13.453 60.4839 
205 1 1 -0.834 2.49396 3.20848 75.9413 
206 1 1 -0.834 1.33825 8.07047 78.4726 
207 1 1 -0.834 19.2366 22.5181 59.6561 
208 1 1 -0.834 3.36161 22.5989 8.41889 
209 1 1 -0.834 20.0313 11.5773 43.3948 
210 1 1 -0.834 4.92391 9.39678 2.90289 
211 1 1 -0.834 24.2343 13.701 67.7608 
212 1 1 -0.834 14.7656 2.33932 72.061 
213 1 1 -0.834 22.4927 18.9568 3.53919 
214 1 1 -0.834 16.6871 0.470713 0.873336 
215 1 1 -0.834 8.35842 5.28612 3.75257 
216 1 1 -0.834 12.4308 18.214 43.6867 
217 1 1 -0.834 20.7109 4.86109 56.7184 
218 1 1 -0.834 4.25615 4.85256 50.6679 
219 1 1 -0.834 11.2078 20.3721 17.4986 
220 1 1 -0.834 8.16864 16.2879 46.195 
221 1 1 -0.834 1.54928 0.188774 55.0404 
222 1 1 -0.834 18.4213 13.8854 57.2012 
223 1 1 -0.834 13.157 23.7313 20.6888 
224 1 1 -0.834 9.64537 7.03909 77.5815 
225 1 1 -0.834 13.894 11.3009 61.4379 
226 1 1 -0.834 22.9968 23.2639 24.0178 
227 1 1 -0.834 12.337 9.11111 65.3933 
228 1 1 -0.834 19.2588 16.1276 67.3139 
229 1 1 -0.834 12.1914 10.2836 58.8111 
230 1 1 -0.834 3.0739 9.4158 60.7716 
231 1 1 -0.834 18.2045 6.95973 75.8563 
232 1 1 -0.834 1.58838 9.48137 39.1794 
233 1 1 -0.834 16.7509 9.31804 39.0428 
234 1 1 -0.834 19.7765 16.8941 51.8052 
235 1 1 -0.834 1.19755 6.05036 37.9926 
236 1 1 -0.834 5.02153 12.1912 48.0531 
237 1 1 -0.834 13.1775 13.1598 34.5688 
238 1 1 -0.834 18.1311 11.0473 79.9848 
239 1 1 -0.834 4.89649 17.8092 85.6141 
240 1 1 -0.834 7.50846 23.4063 12.1898 
241 1 1 -0.834 19.9343 10.7511 40.2332 
242 1 1 -0.834 3.07995 3.43519 69.2491 
243 1 1 -0.834 16.9586 14.1398 30.9253 
244 1 1 -0.834 19.9867 4.54346 71.3791 
245 1 1 -0.834 0.100286 15.5421 75.4791 
246 1 1 -0.834 19.4518 2.12328 82.4402 
247 1 1 -0.834 20.1228 10.0478 77.8994 
248 1 1 -0.834 7.41918 10.8135 85.1803 
249 1 1 -0.834 20.0403 11.3694 69.9183 
250 1 1 -0.834 23.3543 10.156 63.7778 
251 1 1 -0.834 3.13353 24.4012 45.1055 
252 1 1 -0.834 5.39111 7.74519 68.3217 
253 1 1 -0.834 7.08753 23.4195 46.8196 
254 1 1 -0.834 7.87739 19.1127 37.3907 
255 1 1 -0.834 8.92394 11.5012 5.87284 
256 1 1 -0.834 0.333285 3.92147 65.4156 
257 1 1 -0.834 3.76931 0.317777 80.3565 
258 1 1 -0.834 13.5874 15.9719 29.7864 
259 1 1 -0.834 15.3986 10.737 55.2803 
260 1 1 -0.834 7.14007 3.34581 63.1871 
261 1 1 -0.834 5.56947 20.5838 59.401 
262 1 1 -0.834 23.1939 13.0476 19.9018 
263 1 1 -0.834 19.6975 21.1506 86.4927 
264 1 1 -0.834 17.2107 19.8988 43.5656 
265 1 1 -0.834 3.97735 19.7431 62.1792 
266 1 1 -0.834 16.7686 10.9946 48.0428 
267 1 1 -0.834 23.4384 21.0261 65.9837 
268 1 1 -0.834 19.5997 10.6363 16.5324 
269 1 1 -0.834 1.76726 10.2713 58.3382 
270 1 1 -0.834 1.26357 19.545 56.6047 
271 1 1 -0.834 15.0503 8.71306 64.2602 
272 1 1 -0.834 4.5701 11.6612 1.24705 
273 1 1 -0.834 14.8816 2.58152 26.186 
274 1 1 -0.834 18.7843 5.93278 19.9821 
275 1 1 -0.834 11.9183 21.6632 76.4448 
276 1 1 -0.834 19.1839 14.2171 11.5014 
277 1 1 -0.834 2.5509 23.9012 10.7652 
278 1 1 -0.834 23.7225 22.4374 45.4403 
279 1 1 -0.834 2.286 1.06058 74.378 
280 1 1 -0.834 18.405 3.7943 21.6795 
281 1 1 -0.834 0.254317 3.44859 60.2228 
282 1 1 -0.834 18.1939 0.123154 61.1462 
283 1 1 -0.834 1.41054 0.363357 28.9023 
284 1 1 -0.834 4.46487 21.1454 74.8068 
285 1 1 -0.834 8.29373 17.3407 55.2713 
286 1 1 -0.834 21.0555 8.57519 60.1534 
287 1 1 -0.834 22.9623 13.6219 43.7454 
288 1 1 -0.834 14.9326 21.0319 42.2642 
289 1 1 -0.834 22.4402 0.749427 26.0878 
290 1 1 -0.834 7.78116 14.3134 78.5929 
291 1 1 -0.834 7.48286 10.7134 1.07446 
292 1 1 -0.834 5.04869 11.6955 55.684 
293 1 1 -0.834 0.213604 6.55576 64.9625 
294 1 1 -0.834 16.4506 7.22336 83.9198 
295 1 1 -0.834 19.7342 0.851769 26.2661 
296 1 1 -0.834 12.9358 4.11808 60.3243 
297 1 1 -0.834 2.97575 20.5045 58.4171 
298 1 1 -0.834 21.8133 4.1505 52.9997 
299 1 1 -0.834 23.2774 23.1215 1.29879 
300 1 1 -0.834 22.1578 19.0322 42.1381 
301 1 1 -0.834 11.5183 11.3955 75.3003 
302 1 1 -0.834 18.6667 19.5504 70.0128 
303 1 1 -0.834 1.65818 23.8783 6.23717 
304 1 1 -0.834 18.6675 7.44604 12.4886 
305 1 1 -0.834 13.5333 16.8628 49.7976 
306 1 1 -0.834 3.14661 23.8779 48.9163 
307 1 1 -0.834 3.12109 17.8798 59.0867 
308 1 1 -0.834 17.8779 19.3425 59.5567 
309 1 1 -0.834 17.0589 6.24756 51.4044 
310 1 1 -0.834 13.0393 2.296 45.2694 
311 1 1 -0.834 1.35329 0.200999 79.2197 
312 1 1 -0.834 20.9479 14.6968 42.0906 
313 1 1 -0.834 8.55965 6.61253 45.8011 
314 1 1 -0.834 10.6841 5.98005 53.001 
315 1 1 -0.834 14.7321 23.7459 72.8139 
316 1 1 -0.834 17.6654 21.3977 27.1214 
317 1 1 -0.834 7.63834 8.64387 23.8979 
318 1 1 -0.834 15.0801 15.343 79.1502 
319 1 1 -0.834 22.8357 13.6747 80.834 
320 1 1 -0.834 9.84492 24.4091 45.6415 
321 1 1 -0.834 0.896391 3.23153 62.9769 
322 1 1 -0.834 22.9177 1.13951 46.4317 
323 1 1 -0.834 4.71157 7.4802 75.8898 
324 1 1 -0.834 17.1535 0.645236 68.4306 
325 1 1 -0.834 3.7893 19.3347 20.9984 
326 1 1 -0.834 23.0125 5.07656 36.8636 
327 1 1 -0.834 14.3359 15.3828 37.8467 
328 1 1 -0.834 14.4185 3.86684 18.7592 
329 1 1 -0.834 8.0727 24.1183 78.6491 
330 1 1 -0.834 19.1153 15.3593 34.5892 
331 1 1 -0.834 2.07324 12.7685 73.1271 
332 1 1 -0.834 19.1376 23.5075 48.4674 
333 1 1 -0.834 23.1787 13.5406 61.4736 
334 1 1 -0.834 4.14642 16.1314 82.3323 
335 1 1 -0.834 19.1425 23.4654 3.08924 
336 1 1 -0.834 18.2993 18.6965 56.8031 
337 1 1 -0.834 17.7648 17.0034 71.9379 
338 1 1 -0.834 14.98 1.53139 83.6523 
339 1 1 -0.834 11.7618 13.6702 30.0473 
340 1 1 -0.834 0.0445023 13.4809 78.7565 
341 1 1 -0.834 9.58354 13.9186 26.899 
342 1 1 -0.834 6.67233 18.9699 20.0979 
343 1 1 -0.834 1.06446 5.72829 31.8366 
344 1 1 -0.834 1.63369 18.6345 81.6134 
345 1 1 -0.834 1.70622 15.3774 55.3581 
346 1 1 -0.834 8.65608 9.82304 38.8009 
347 1 1 -0.834 24.342 8.72269 75.5051 
348 1 1 -0.834 5.10407 9.67207 24.8841 
349 1 1 -0.834 22.5054 4.63417 75.8938 
350 1 1 -0.834 8.12543 20.9593 35.333 
351 1 1 -0.834 5.58757 10.1494 66.1391 
352 1 1 -0.834 3.50845 19.7245 79.0954 
353 1 1 -0.834 16.625 8.3757 55.4184 
354 1 1 -0.834 11.5051 1.28973 17.1951 
355 1 1 -0.834 4.88651 13.6744 70.1926 
356 1 1 -0.834 4.3788 15.3777 21.6759 
357 1 1 -0.834 19.6277 0.851092 46.407 
358 1 1 -0.834 5.80352 11.2215 27.0888 
359 1 1 -0.834 13.5392 10.2802 48.2826 
360 1 1 -0.834 16.6428 12.9672 49.8308 
361 1 1 -0.834 9.15854 9.56746 7.66722 
362 1 1 -0.834 17.9984 23.4066 64.0309 
363 1 1 -0.834 22.5183 13.2051 57.9636 
364 1 1 -0.834 21.7714 16.4216 74.4199 
365 1 1 -0.834 7.65285 14.1932 54.6293 
366 1 1 -0.834 22.6439 10.195 15.7769 
367 1 1 -0.834 3.04834 11.3872 19.8658 
368 1 1 -0.834 18.4092 4.163 68.2599 
369 1 1 -0.834 8.78692 15.9807 60.9974 
370 1 1 -0.834 11.7097 6.32671 25.9325 
371 1 1 -0.834 14.3987 8.54742 60.465 
372 1 1 -0.834 20.3465 11.8254 11.414 
373 1 1 -0.834 4.56296 8.75085 27.4233 
374 1 1 -0.834 1.10034 5.52639 69.5524 
375 1 1 -0.834 19.2295 3.27924 51.5995 
376 1 1 -0.834 4.68522 23.6215 13.6793 
377 1 1 -0.834 2.81772 9.51662 68.4368 
378 1 1 -0.834 22.7604 1.80897 64.3631 
379 1 1 -0.834 11.4213 20.7833 43.7079 
380 1 1 -0.834 16.5548 23.5201 49.1409 
381 1 1 -0.834 13.3614 12.2725 77.4958 
382 1 1 -0.834 5.33712 16.7865 70.1574 
383 1 1 -0.834 6.70549 8.60871 6.31532 
384 1 1 -0.834 14.9652 22.1093 69.0022 
385 1 1 -0.834 21.5732 8.51886 19.9349 
386 1 1 -0.834 1.21733 15.1378 51.6445 
387 1 1 -0.834 14.6185 5.69375 79.7996 
388 1 1 -0.834 1.94929 2.8953 54.0234 
389 1 1 -0.834 19.6462 23.1029 78.691 
390 1 1 -0.834 20.4822 9.83117 13.9701 
391 1 1 -0.834 12.4333 12.7671 4.30148 
392 1 1 -0.834 4.57506 5.13812 61.1403 
393 1 1 -0.834 11.2405 3.68021 47.3981 
394 1 1 -0.834 10.0283 2.91492 60.9308 
395 1 1 -0.834 18.2318 4.96264 85.7742 
396 1 1 -0.834 22.1597 12.5131 72.3608 
397 1 1 -0.834 14.4218 7.15165 82.1584 
398 1 1 -0.834 19.7692 11.2818 57.5149 
399 1 1 -0.834 8.2332 5.17849 29.2988 
400 1 1 -0.834 8.90698 21.7749 63.3044 
401 1 1 -0.834 9.57136 23.0727 41.4288 
402 1 1 -0.834 9.24625 21.618 72.948 
403 1 1 -0.834 9.04738 22.9339 65.7345 
404 1 1 -0.834 21.1259 23.2917 45.3435 
405 1 1 -0.834 3.68879 2.04433 56.5968 
406 1 1 -0.834 16.6157 11.6849 34.6452 
407 1 1 -0.834 9.24616 19.7336 51.037 
408 1 1 -0.834 18.01 22.285 45.8986 
409 1 1 -0.834 2.98545 3.1586 65.9913 
410 1 1 -0.834 11.2357 16.5569 32.9871 
411 1 1 -0.834 8.88822 12.976 46.4043 
412 1 1 -0.834 2.92734 13.5705 61.7594 
413 1 1 -0.834 14.4169 0.575631 58.0021 
414 1 1 -0.834 17.8355 0.242424 18.8634 
415 1 1 -0.834 4.88391 18.9357 17.7454 
416 1 1 -0.834 7.68514 11.6577 22.9154 
417 1 1 -0.834 21.7577 0.513261 4.25321 
418 1 1 -0.834 10.4349 11.0009 44.6859 
419 1 1 -0.834 11.0701 13.6931 48.4034 
420 1 1 -0.834 12.7188 23.0447 13.6323 
421 1 1 -0.834 20.2909 7.46585 70.9101 
422 1 1 -0.834 23.6068 5.59258 79.6372 
423 1 1 -0.834 19.8802 5.91671 73.8588 
424 1 1 -0.834 6.02802 9.81807 58.7434 
425 1 1 -0.834 23.9644 6.83765 34.8215 
426 1 1 -0.834 10.2391 22.6231 52.8229 
427 1 1 -0.834 2.60177 17.2449 70.6783 
428 1 1 -0.834 11.5454 18.279 74.6412 
429 1 1 -0.834 13.1968 17.8189 64.8544 
430 1 1 -0.834 0.475673 13.6832 59.2892 
431 1 1 -0.834 22.6274 20.4147 59.9182 
432 1 1 -0.834 18.3241 3.2772 47.7868 
433 1 1 -0.834 3.65681 3.11561 78.6636 
434 1 1 -0.834 23.6508 1.10848 70.8474 
435 1 1 -0.834 22.7785 0.68864 78.4984 
436 1 1 -0.834 4.5484 12.4046 73.86 
437 1 1 -0.834 20.0376 23.5668 69.8421 
438 1 1 -0.834 3.04231 22.8121 33.1967 
439 1 1 -0.834 13.2265 5.67363 57.574 
440 1 1 -0.834 1.70365 4.96991 51.4544 
441 1 1 -0.834 16.3186 6.73998 18.2012 
442 1 1 -0.834 23.5112 7.40819 70.2915 
443 1 1 -0.834 13.8468 11.5279 73.0658 
444 1 1 -0.834 4.93467 3.96026 54.3909 
445 1 1 -0.834 10.6911 3.94544 78.7906 
446 1 1 -0.834 11.5591 4.18834 81.7555 
447 1 1 -0.834 3.5042 19.0123 73.1793 
448 1 1 -0.834 14.6845 15.6928 65.9653 
449 1 1 -0.834 18.3924 3.13479 18.7492 
450 1 1 -0.834 12.928 14.407 32.3139 
451 1 1 -0.834 18.4879 4.85203 41.5172 
452 1 1 -0.834 20.261 15.9822 71.4871 
453 1 1 -0.834 17.0015 2.12223 58.322 
454 1 1 -0.834 4.64533 22.5826 50.9188 
455 1 1 -0.834 12.0558 7.06046 2.1726 
456 1 1 -0.834 20.7299 6.10958 68.4778 
457 1 1 -0.834 20.0191 13.4658 52.4788 
458 1 1 -0.834 12.9556 23.8361 70.7509 
459 1 1 -0.834 8.44644 13.1184 60.0712 
460 1 1 -0.834 13.9077 8.10163 46.615 
461 1 1 -0.834 12.8015 2.39942 56.8869 
462 1 1 -0.834 15.3715 12.2769 68.7689 
463 1 1 -0.834 8.76331 2.59448 42.1172 
464 1 1 -0.834 24.3249 17.2758 46.8945 
465 1 1 -0.834 14.4089 19.2027 76.953 
466 1 1 -0.834 8.042 7.20807 51.7782 
467 1 1 -0.834 20.2772 15.8922 55.8411 
468 1 1 -0.834 8.9227 14.3667 72.984 
469 1 1 -0.834 4.94085 7.16586 71.3609 
470 1 1 -0.834 3.25727 6.88819 48.2012 
471 1 1 -0.834 21.9752 9.02749 49.8048 
472 1 1 -0.834 11.3067 23.0165 37.247 
473 1 1 -0.834 12.6065 3.9329 73.7585 
474 1 1 -0.834 19.9036 16.0968 46.896 
475 1 1 -0.834 17.4219 22.4641 51.5727 
476 1 1 -0.834 3.29647 14.1733 64.4256 
477 1 1 -0.834 13.5143 20.991 45.544 
478 1 1 -0.834 6.87993 8.01195 28.8773 
479 1 1 -0.834 24.3302 7.36815 16.7616 
480 1 1 -0.834 22.3574 19.0297 73.7337 
481 1 1 -0.834 15.4128 5.94702 55.4596 
482 1 1 -0.834 0.333554 1.83713 56.6663 
483 1 1 -0.834 15.6347 13.7832 53.2004 
484 1 1 -0.834 9.84499 4.40506 63.2463 
485 1 1 -0.834 10.0553 23.8447 48.5551 
486 1 1 -0.834 22.3973 15.7183 69.0779 
487 1 1 -0.834 14.6475 11.2151 52.6193 
488 1 1 -0.834 17.3559 3.10391 44.8302 
489 1 1 -0.834 23.0133 17.8451 71.1938 
490 1 1 -0.834 2.23634 22.1426 69.027 
491 1 1 -0.834 0.781081 16.4924 24.6267 
492 1 1 -0.834 3.80465 19.7245 83.8907 
493 1 1 -0.834 17.9082 12.072 67.2204 
494 1 1 -0.834 20.6269 21.2634 47.1153 
495 1 1 -0.834 4.52503 23.6051 70.6512 
496 1 1 -0.834 13.4192 15.4354 47.3852 
497 1 1 -0.834 13.3967 9.54902 78.2768 
498 1 1 -0.834 0.313507 0.445766 48.7459 
499 1 1 -0.834 5.13574 1.83622 75.8471 
500 1 1 -0.834 8.59756 16.708 67.5391 
501 1 1 -0.834 0.145583 23.6848 68.1777 
502 1 1 -0.834 14.8222 12.7248 47.2012 
503 1 1 -0.834 9.76595 15.7389 41.3717 
504 1 1 -0.834 3.15191 5.1423 73.7079 
505 1 1 -0.834 9.49117 8.86769 1.34366 
506 1 1 -0.834 22.8965 0.311433 7.27992 
507 1 1 -0.834 14.9567 10.0681 71.1444 
508 1 1 -0.834 7.26903 19.8839 73.9855 
509 1 1 -0.834 12.3894 18.1334 61.6373 
510 1 1 -0.834 17.9544 4.77185 80.4525 
511 1 1 -0.834 22.5855 19.4577 48.4814 
512 1 1 -0.834 7.09633 11.9251 29.462 
513 1 1 -0.834 16.0463 17.7506 48.3501 
514 1 1 -0.834 15.6329 23.734 56.0013 
515 1 1 -0.834 19.2392 13.114 71.7544 
516 1 1 -0.834 23.8638 3.49216 50.5736 
517 1 1 -0.834 7.6087 4.9918 43.5234 
518 1 1 -0.834 14.8319 4.37425 44.3904 
519 1 1 -0.834 2.14242 17.062 74.372 
520 1 1 -0.834 22.4571 3.46434 8.6973 
521 1 1 -0.834 4.99902 21.9351 45.4666 
522 1 1 -0.834 18.0572 14.5022 69.3359 
523 1 1 -0.834 13.5511 8.71179 3.92118 
524 1 1 -0.834 2.57637 12.991 67.017 
525 1 1 -0.834 16.6837 4.41889 17.0935 
526 1 1 -0.834 10.7367 3.28713 21.4385 
527 1 1 -0.834 21.1117 20.3651 70.754 
528 1 1 -0.834 20.1009 1.79179 69.4842 
529 1 1 -0.834 3.02981 6.70588 59.3597 
530 1 1 -0.834 13.0546 4.73301 1.42085 
531 1 1 -0.834 14.0503 0.309752 80.997 
532 1 1 -0.834 7.4884 9.32236 44.775 
533 1 1 -0.834 10.6843 2.99337 55.2325 
534 1 1 -0.834 7.11179 20.0877 80.0357 
535 1 1 -0.834 13.219 5.28216 83.789 
536 1 1 -0.834 6.15884 0.798386 50.1604 
537 1 1 -0.834 6.95459 4.89643 6.59167 
538 1 1 -0.834 17.231 16.2702 58.1226 
539 1 1 -0.834 22.2781 1.15743 67.8147 
540 1 1 -0.834 0.184895 0.611771 4.17011 
541 1 1 -0.834 18.751 6.26434 53.7383 
542 1 1 -0.834 17.0098 6.50474 71.5925 
543 1 1 -0.834 22.5766 2.17281 58.7368 
544 1 1 -0.834 11.1029 8.86349 5.81227 
545 1 1 -0.834 19.4421 3.84922 61.0279 
546 1 1 -0.834 20.5094 1.67896 2.09775 
547 1 1 -0.834 22.8143 17.1542 23.2902 
548 1 1 -0.834 12.8402 15.2418 12.4435 
549 1 1 -0.834 0.161819 22.8037 53.6023 
550 1 1 -0.834 19.3314 1.95636 79.2036 
551 1 1 -0.834 8.00686 8.76361 31.308 
552 1 1 -0.834 15.4341 9.56913 50.4136 
553 1 1 -0.834 7.55254 15.0965 75.5495 
554 1 1 -0.834 3.7964 14.2949 41.4762 
555 1 1 -0.834 9.64111 0.458168 72.2388 
556 1 1 -0.834 16.2368 18.8846 35.2877 
557 1 1 -0.834 10.6357 17.2138 35.6751 
558 1 1 -0.834 10.7925 10.5717 72.9214 
559 1 1 -0.834 4.64842 2.12732 30.6041 
560 1 1 -0.834 20.8223 5.77657 59.264 
561 1 1 -0.834 4.67099 14.3505 44.1346 
562 1 1 -0.834 23.8717 0.799124 62.0965 
563 1 1 -0.834 10.3246 11.2155 53.4493 
564 1 1 -0.834 11.6502 2.50639 64.4403 
565 1 1 -0.834 13.884 21.6159 55.7969 
566 1 1 -0.834 22.5783 5.49661 16.0088 
567 1 1 -0.834 13.1424 8.92708 75.464 
568 1 1 -0.834 13.5582 17.1499 72.8196 
569 1 1 -0.834 7.4735 14.7212 82.3101 
570 1 1 -0.834 4.96919 7.45085 56.3485 
571 1 1 -0.834 21.5706 12.4237 37.9526 
572 1 1 -0.834 20.5471 8.01482 51.9311 
573 1 1 -0.834 23.1588 21.8308 26.4911 
574 1 1 -0.834 16.9019 17.243 78.4103 
575 1 1 -0.834 16.5591 11.1595 7.86881 
576 1 1 -0.834 11.3403 16.5594 54.5084 
577 1 1 -0.834 3.86141 12.585 58.4981 
578 1 1 -0.834 18.9646 24.1283 53.2064 
579 1 1 -0.834 1.11905 3.32165 48.4222 
580 1 1 -0.834 15.3767 7.36851 20.6183 
581 1 1 -0.834 22.7793 23.5691 72.9091 
582 1 1 -0.834 3.79906 2.56004 45.8916 
583 1 1 -0.834 23.7627 3.63006 32.4468 
584 1 1 -0.834 5.63971 20.0913 51.0296 
585 1 1 -0.834 14.6395 6.94523 49.2321 
586 1 1 -0.834 11.2196 11.2999 66.7512 
587 1 1 -0.834 16.9892 13.8134 60.714 
588 1 1 -0.834 23.8638 12.0492 39.6289 
589 1 1 -0.834 0.513787 5.35749 72.0236 
590 1 1 -0.834 8.86939 16.2478 70.2723 
591 1 1 -0.834 6.07629 15.3132 58.5454 
592 1 1 -0.834 0.455936 10.1186 48.9239 
593 1 1 -0.834 9.28862 1.219 67.8631 
594 1 1 -0.834 1.23386 22.9965 43.5205 
595 1 1 -0.834 19.22 7.73432 81.7575 
596 1 1 -0.834 3.74106 11.4501 81.8573 
597 1 1 -0.834 22.4463 4.29569 70.1686 
598 1 1 -0.834 15.4074 3.49793 59.9004 
599 1 1 -0.834 22.757 6.03515 10.6269 
600 1 1 -0.834 10.7831 14.1137 56.0074 
601 1 1 -0.834 19.2811 11.3361 35.4893 
602 1 1 -0.834 13.731 3.7855 67.1879 
603 1 1 -0.834 9.73729 20.2136 80.7836 
604 1 1 -0.834 8.12051 17.8201 75.9839 
605 1 1 -0.834 12.7904 3.93773 50.8277 
606 1 1 -0.834 21.6243 20.7386 7.3472 
607 1 1 -0.834 4.49285 14.2766 78.4215 
608 1 1 -0.834 11.9233 14.3077 52.5182 
609 1 1 -0.834 23.2606 22.0673 49.4364 
610 1 1 -0.834 17.1232 0.228693 21.4681 
611 1 1 -0.834 5.33483 23.0678 35.5312 
612 1 1 -0.834 20.6254 10.779 63.7975 
613 1 1 -0.834 9.62008 7.08526 63.7314 
614 1 1 -0.834 6.2955 20.3584 43.0279 
615 1 1 -0.834 18.5911 17.689 49.3984 
616 1 1 -0.834 0.477701 19.325 67.4889 
617 1 1 -0.834 7.74483 22.9814 51.4817 
618 1 1 -0.834 10.3024 16.2965 77.6002 
619 1 1 -0.834 22.0868 9.91575 58.1202 
620 1 1 -0.834 7.08053 2.6291 35.3013 
621 1 1 -0.834 17.5854 9.79317 64.5013 
622 1 1 -0.834 11.2741 6.07535 50.263 
623 1 1 -0.834 5.79752 0.500409 32.6047 
624 1 1 -0.834 23.5331 19.8624 62.8084 
625 1 1 -0.834 7.52658 14.3802 48.2379 
626 1 1 -0.834 23.6138 15.9665 58.9481 
627 1 1 -0.834 8.49124 11.6533 77.5321 
628 1 1 -0.834 6.71622 19.0665 45.7438 
629 1 1 -0.834 11.0123 10.8614 49.0909 
630 1 1 -0.834 2.308 6.10904 76.6764 
631 1 1 -0.834 18.746 12.9766 32.9681 
632 1 1 -0.834 1.06663 11.6571 17.192 
633 1 1 -0.834 8.76865 5.93096 54.9886 
634 1 1 -0.834 17.7095 13.0416 6.33995 
635 1 1 -0.834 12.8397 18.9951 34.2809 
636 1 1 -0.834 12.5605 15.8391 80.4281 
637 1 1 -0.834 21.7163 3.96155 45.6567 
638 1 1 -0.834 0.849281 0.598124 59.2074 
639 1 1 -0.834 9.62839 5.53238 1.29134 
640 1 1 -0.834 21.456 23.4302 53.8395 
641 1 1 -0.834 14.8722 1.17724 19.3693 
642 1 1 -0.834 4.297 0.502643 59.1475 
643 1 1 -0.834 5.98667 14.0196 67.7496 
644 1 1 -0.834 0.104456 15.5906 62.7628 
645 1 1 -0.834 10.0667 4.28986 26.9731 
646 1 1 -0.834 12.7991 10.6071 30.7055 
647 1 1 -0.834 6.21403 23.1923 41.0182 
648 1 1 -0.834 15.4808 19.6795 51.6261 
649 1 1 -0.834 12.0247 3.66468 85.8166 
650 1 1 -0.834 12.0712 24.2525 41.445 
651 1 1 -0.834 3.18449 4.96984 56.3008 
652 1 1 -0.834 24.297 10.7554 13.5627 
653 1 1 -0.834 7.45137 5.34725 70.5832 
654 1 1 -0.834 19.8363 19.857 44.7572 
655 1 1 -0.834 7.09511 13.4999 85.0769 
656 1 1 -0.834 6.44535 2.40337 56.9906 
657 1 1 -0.834 13.9268 5.48195 69.303 
658 1 1 -0.834 3.05878 7.61292 45.2707 
659 1 1 -0.834 19.836 2.65592 66.5521 
660 1 1 -0.834 15.1341 23.2805 22.622 
661 1 1 -0.834 14.3555 17.4399 12.8024 
662 1 1 -0.834 15.6603 14.4562 56.6278 
663 1 1 -0.834 11.6933 2.27392 71.9272 
664 1 1 -0.834 2.9699 11.9083 85.9819 
665 1 1 -0.834 23.1442 9.43184 73.1348 
666 1 1 -0.834 9.44524 20.7726 38.5324 
667 1 1 -0.834 15.84 12.6408 80.3985 
668 1 1 -0.834 14.0417 4.17546 48.5294 
669 1 1 -0.834 9.21143 8.10377 41.0053 
670 1 1 -0.834 23.3425 11.2679 51.1403 
671 1 1 -0.834 14.3244 13.301 62.9819 
672 1 1 -0.834 7.57417 14.6322 43.9677 
673 1 1 -0.834 3.23386 22.8583 66.3344 
674 1 1 -0.834 10.6746 13.1618 1.97673 
675 1 1 -0.834 0.477773 18.2149 1.97756 
676 1 1 -0.834 13.2967 3.35626 24.1539 
677 1 1 -0.834 13.7999 22.2405 52.0945 
678 1 1 -0.834 1.78614 11.8084 41.4442 
679 1 1 -0.834 9.76742 6.95952 30.9514 
680 1 1 -0.834 24.2068 8.80439 44.9347 
681 1 1 -0.834 3.66426 19.4737 44.9552 
682 1 1 -0.834 22.0795 6.3433 64.0879 
683 1 1 -0.834 17.7671 19.1814 28.7405 
684 1 1 -0.834 7.30173 6.8559 49.0712 
685 1 1 -0.834 7.52095 10.0633 52.5658 
686 1 1 -0.834 6.65802 18.3349 49.1157 
687 1 1 -0.834 11.5099 2.69637 76.0755 
688 1 1 -0.834 1.83215 22.5006 47.0852 
689 1 1 -0.834 13.3578 19.7325 67.2853 
690 1 1 -0.834 5.55782 10.952 71.124 
691 1 1 -0.834 2.19297 22.67 60.4902 
692 1 1 -0.834 11.7831 7.58612 70.9919 
693 1 1 -0.834 5.41505 14.1814 50.5273 
694 1 1 -0.834 8.85309 0.977895 40.2433 
695 1 1 -0.834 22.2021 13.5888 75.0204 
696 1 1 -0.834 4.31025 15.1269 84.8563 
697 1 1 -0.834 10.0081 10.7173 62.3769 
698 1 1 -0.834 21.5978 16.0141 65.1687 
699 1 1 -0.834 24.3966 11.5489 71.3649 
700 1 1 -0.834 18.6877 9.69416 53.4078 
701 1 1 -0.834 10.5763 17.9166 45.93 
702 1 1 -0.834 0.932708 1.8121 68.6826 
703 1 1 -0.834 23.8293 20.4957 55.2955 
704 1 1 -0.834 10.4842 2.58638 83.6012 
705 1 1 -0.834 2.0154 8.48409 63.548 
706 1 1 -0.834 3.16452 7.95567 8.52549 
707 1 1 -0.834 5.83662 13.4288 80.5766 
708 1 1 -0.834 3.19316 3.04206 4.24076 
709 1 1 -0.834 19.1598 15.6899 8.60243 
710 1 1 -0.834 0.11723 8.27475 37.1571 
711 1 1 -0.834 11.4423 6.77928 22.4793 
712 1 1 -0.834 6.18993 24.3382 43.6933 
713 1 1 -0.834 5.83095 1.54683 47.4501 
714 1 1 -0.834 19.0652 11.0719 61.2042 
715 1 1 -0.834 7.88351 7.67867 57.5994 
716 1 1 -0.834 14.0427 14.6642 76.716 
717 1 1 -0.834 3.49806 6.87975 65.8614 
718 1 1 -0.834 8.68844 14.6579 57.5346 
719 1 1 -0.834 2.15543 1.605 32.4722 
720 1 1 -0.834 13.6024 6.78056 51.8384 
721 1 1 -0.834 16.9429 11.9534 13.5509 
722 1 1 -0.834 9.12146 9.23776 27.5853 
723 1 1 -0.834 7.65766 12.7059 52.2978 
724 1 1 -0.834 18.2907 8.55442 41.2299 
725 1 1 -0.834 13.4714 10.3047 43.5632 
726 1 1 -0.834 6.08687 2.75432 65.8336 
727 1 1 -0.834 12.9729 19.4219 70.1472 
728 1 1 -0.834 8.64991 8.67047 54.6576 
729 1 1 -0.834 4.36864 13.0844 23.898 
730 1 1 -0.834 0.120667 0.757438 34.0628 
731 1 1 -0.834 16.1337 22.769 82.6008 
732 1 1 -0.834 4.18879 18.7045 47.4063 
733 1 1 -0.834 19.277 18.1591 74.3191 
734 1 1 -0.834 7.57039 10.6577 75.1371 
735 1 1 -0.834 2.5708 15.8192 16.4586 
736 1 1 -0.834 8.09645 1.24528 58.9858 
737 1 1 -0.834 6.32972 18.1921 15.2809 
738 1 1 -0.834 18.6545 18.3802 62.0725 
739 1 1 -0.834 12.5148 18.2093 78.8577 
740 1 1 -0.834 22.6265 17.8157 67.2658 
741 1 1 -0.834 0.829983 15.0278 65.3365 
742 1 1 -0.834 12.5432 23.7343 54.2969 
743 1 1 -0.834 22.2622 15.8427 78.2379 
744 1 1 -0.834 10.8497 6.05553 75.3954 
745 1 1 -0.834 10.0209 13.222 50.8492 
746 1 1 -0.834 11.6063 8.38218 42.3445 
747 1 1 -0.834 5.48753 14.6403 55.8366 
748 1 1 -0.834 3.7163 0.683774 35.043 
749 1 1 -0.834 13.4951 14.4007 54.9505 
750 1 1 -0.834 21.4016 20.2791 50.9737 