ITEM: TIMESTEP
4500000
ITEM: NUMBER OF ATOMS
4768
ITEM: BOX BOUNDS xy xz yz pp pp pp
0.0000000000000000e+00 2.4433001000000001e+01 0.0000000000000000e+00
0.0000000000000000e+00 2.4433001000000001e+01 0.0000000000000000e+00
0.0000000000000000e+00 8.7675772958794497e+01 0.0000000000000000e+00
ITEM: ATOMS id mol type q x y z
1 1 1 -0.834 4.23115 17.5175 85.4153
2 1 1 -0.834 18.453 7.58579 19.2923
3 1 1 -0.834 7.8686 14.3042 79.3517
4 1 1 -0.834 15.0657 8.00447 70.6826
5 1 1 -0.834 19.9313 9.87637 54.8437
6 1 1 -0.834 16.5066 16.5594 33.464
7 1 1 -0.834 9.16986 9.44869 68.5182
8 1 1 -0.834 21.6497 11.9167 74.9743
9 1 1 -0.834 5.36531 19.3255 53.8317
10 1 1 -0.834 10.776 7.71464 27.3703
11 1 1 -0.834 4.7499 20.8138 55.9754
12 1 1 -0.834 15.7112 5.41017 53.2483
13 1 1 -0.834 7.10556 18.2838 15.8468
14 1 1 -0.834 10.0654 1.46526 71.3074
15 1 1 -0.834 1.43443 6.064 59.3804
16 1 1 -0.834 23.8091 19.5563 45.5746
17 1 1 -0.834 13.9815 19.3581 70.4313
18 1 1 -0.834 24.2969 15.008 56.657
19 1 1 -0.834 17.2464 4.33227 86.0193
20 1 1 -0.834 21.3546 19.731 0.991428
21 1 1 -0.834 15.9388 13.5826 30.5693
22 1 1 -0.834 14.6095 1.20838 63.7526
23 1 1 -0.834 0.810462 8.78264 15.9953
24 1 1 -0.834 1.01832 14.8537 63.4004
25 1 1 -0.834 16.1299 7.17142 85.1405
26 1 1 -0.834 13.766 22.6617 80.5969
27 1 1 -0.834 5.55662 2.25383 64.8885
28 1 1 -0.834 0.0102695 17.1546 51.1773
29 1 1 -0.834 10.0057 4.85935 54.4122
30 1 1 -0.834 13.4475 11.9933 80.3381
31 1 1 -0.834 20.8111 12.0316 62.3344
32 1 1 -0.834 5.85258 1.40241 76.4267
33 1 1 -0.834 8.60379 2.99868 61.1809
34 1 1 -0.834 17.8399 19.626 28.9532
35 1 1 -0.834 17.7558 19.8326 79.461
36 1 1 -0.834 22.8431 19.1612 49.9756
37 1 1 -0.834 0.0281794 8.69845 46.9647
38 1 1 -0.834 13.8426 22.4929 63.517
39 1 1 -0.834 14.7772 12.2791 77.8026
40 1 1 -0.834 17.9742 15.8014 35.6425
41 1 1 -0.834 13.1209 9.88473 43.9125
42 1 1 -0.834 12.0564 19.6279 76.5187
43 1 1 -0.834 5.03985 9.16539 52.9656
44 1 1 -0.834 4.5495 3.48506 13.0224
45 1 1 -0.834 20.9372 23.4458 74.0846
46 1 1 -0.834 14.247 3.07827 41.6648
47 1 1 -0.834 12.5904 6.90405 62.6045
48 1 1 -0.834 17.4067 2.00843 24.1423
49 1 1 -0.834 15.3012 8.79105 51.9048
50 1 1 -0.834 22.3421 12.0999 37.1867
51 1 1 -0.834 19.2284 4.99106 51.6234
52 1 1 -0.834 10.9879 14.7849 53.8549
53 1 1 -0.834 18.474 12.2235 39.6011
54 1 1 -0.834 8.28251 15.5859 63.3518
55 1 1 -0.834 23.8778 11.4219 70.2038
56 1 1 -0.834 1.97118 10.37 70.9345
57 1 1 -0.834 15.4789 6.43162 62.3091
58 1 1 -0.834 4.67454 2.86453 6.30526
59 1 1 -0.834 16.8697 22.4929 60.8991
60 1 1 -0.834 16.9253 20.2764 48.8638
61 1 1 -0.834 9.82402 21.1511 40.0572
62 1 1 -0.834 24.1113 20.6636 54.4231
63 1 1 -0.834 2.05011 13.8842 73.5046
64 1 1 -0.834 23.435 18.0421 55.5519
65 1 1 -0.834 4.14133 9.54087 79.065
66 1 1 -0.834 4.5362 2.70926 68.7477
67 1 1 -0.834 4.91656 9.02541 43.9973
68 1 1 -0.834 13.221 7.94123 25.2809
69 1 1 -0.834 22.4362 1.39034 26.5566
70 1 1 -0.834 12.6529 18.1097 34.951
71 1 1 -0.834 0.696012 22.073 60.6688
72 1 1 -0.834 7.17756 1.426 70.9758
73 1 1 -0.834 15.4815 17.0416 62.8412
74 1 1 -0.834 18.5444 23.1378 75.361
75 1 1 -0.834 5.1925 2.32706 35.1421
76 1 1 -0.834 6.04432 20.7816 75.8067
77 1 1 -0.834 16.8441 2.86785 48.4666
78 1 1 -0.834 22.1457 12.2809 55.4385
79 1 1 -0.834 16.8321 8.19197 73.1276
80 1 1 -0.834 6.94696 9.99094 42.2675
81 1 1 -0.834 15.7281 3.77782 26.3106
82 1 1 -0.834 14.9145 15.4382 48.9874
83 1 1 -0.834 15.0863 15.3485 28.5515
84 1 1 -0.834 6.32969 24.3564 10.9593
85 1 1 -0.834 10.5502 8.35975 70.5864
86 1 1 -0.834 9.85294 21.2142 16.5858
87 1 1 -0.834 13.4538 18.39 47.218
88 1 1 -0.834 23.7343 19.3389 75.288
89 1 1 -0.834 22.0391 6.41211 54.428
90 1 1 -0.834 0.551608 4.37877 63.7055
91 1 1 -0.834 17.4309 0.792725 70.5386
92 1 1 -0.834 2.2978 0.42454 66.4367
93 1 1 -0.834 17.6604 4.6366 24.1166
94 1 1 -0.834 7.87942 7.18519 27.7633
95 1 1 -0.834 2.40194 7.0799 33.0299
96 1 1 -0.834 5.6748 2.56218 81.3787
97 1 1 -0.834 1.24085 17.4753 26.0192
98 1 1 -0.834 14.9018 7.55989 49.1306
99 1 1 -0.834 5.52308 21.2969 40.099
100 1 1 -0.834 11.966 13.358 9.13865
101 1 1 -0.834 6.20194 19.5158 78.1238
102 1 1 -0.834 11.5404 23.5891 76.5733
103 1 1 -0.834 7.17523 22.968 49.4566
104 1 1 -0.834 1.55756 14.3279 83.8229
105 1 1 -0.834 5.74569 0.226161 32.4154
106 1 1 -0.834 20.9715 20.5423 78.2763
107 1 1 -0.834 6.16622 5.28925 63.5421
108 1 1 -0.834 17.3605 10.9824 52.5538
109 1 1 -0.834 13.2268 15.5742 51.6635
110 1 1 -0.834 6.81392 20.8194 65.1793
111 1 1 -0.834 7.72256 15.7344 53.1946
112 1 1 -0.834 17.3575 14.7914 5.625
113 1 1 -0.834 3.5747 15.2248 86.5086
114 1 1 -0.834 19.6688 3.69357 21.9748
115 1 1 -0.834 14.2117 2.01435 68.3318
116 1 1 -0.834 16.425 23.1341 83.3074
117 1 1 -0.834 10.5349 18.3763 66.6646
118 1 1 -0.834 11.8191 15.9738 36.4048
119 1 1 -0.834 11.9454 19.4687 40.1511
120 1 1 -0.834 1.98645 19.5358 43.8714
121 1 1 -0.834 22.8867 12.7988 19.7746
122 1 1 -0.834 8.69386 6.01661 69.641
123 1 1 -0.834 7.21817 13.5683 46.4747
124 1 1 -0.834 10.8367 21.0417 67.1358
125 1 1 -0.834 16.912 15.559 51.443
126 1 1 -0.834 9.89661 24.0691 57.1842
127 1 1 -0.834 6.19254 1.81874 60.1995
128 1 1 -0.834 10.8715 5.92688 86.2796
129 1 1 -0.834 8.04585 1.15183 15.8391
130 1 1 -0.834 24.1585 12.7704 79.9392
131 1 1 -0.834 5.06238 23.952 13.8965
132 1 1 -0.834 19.3459 4.36289 81.5186
133 1 1 -0.834 22.8848 2.75483 33.61
134 1 1 -0.834 18.652 0.883267 80.341
135 1 1 -0.834 2.2508 23.3583 77.8813
136 1 1 -0.834 16.4162 2.59948 54.6074
137 1 1 -0.834 2.01578 3.11604 13.9198
138 1 1 -0.834 21.0731 16.4715 27.7569
139 1 1 -0.834 10.0264 21.1167 43.2828
140 1 1 -0.834 10.8982 10.0862 87.3419
141 1 1 -0.834 23.1478 10.6134 63.7806
142 1 1 -0.834 4.58091 10.4486 46.329
143 1 1 -0.834 7.96002 24.155 35.4496
144 1 1 -0.834 15.3407 15.296 77.69
145 1 1 -0.834 13.6067 6.0643 65.1736
146 1 1 -0.834 9.26476 21.5423 78.9058
147 1 1 -0.834 5.06535 0.604211 67.115
148 1 1 -0.834 15.1039 20.7013 61.7173
149 1 1 -0.834 11.0329 13.6432 29.0271
150 1 1 -0.834 21.8757 12.599 78.2226
151 1 1 -0.834 13.7466 4.40608 71.9556
152 1 1 -0.834 20.9959 3.611 55.3962
153 1 1 -0.834 12.9104 22.7839 60.3894
154 1 1 -0.834 16.9306 0.0898401 53.5619
155 1 1 -0.834 7.87516 3.00355 8.67152
156 1 1 -0.834 9.38159 10.3369 41.0202
157 1 1 -0.834 14.4448 19.7321 54.2721
158 1 1 -0.834 16.4582 8.37966 47.064
159 1 1 -0.834 19.6804 10.7772 77.9875
160 1 1 -0.834 23.2539 12.1285 72.7712
161 1 1 -0.834 6.81229 11.3786 79.5161
162 1 1 -0.834 16.462 10.3799 55.0999
163 1 1 -0.834 8.02565 16.2562 75.7291
164 1 1 -0.834 20.338 11.5377 35.2783
165 1 1 -0.834 10.5917 17.0944 61.4661
166 1 1 -0.834 9.97814 3.94779 77.0432
167 1 1 -0.834 22.6049 9.20888 43.6482
168 1 1 -0.834 3.02544 9.67329 54.924
169 1 1 -0.834 11.6272 17.5732 54.2838
170 1 1 -0.834 11.4663 12.5922 58.8912
171 1 1 -0.834 14.6616 0.229104 42.8765
172 1 1 -0.834 19.1808 20.4179 6.8588
173 1 1 -0.834 10.2391 9.864 30.4331
174 1 1 -0.834 2.05468 5.90348 81.2613
175 1 1 -0.834 4.41033 17.6161 51.5593
176 1 1 -0.834 14.6572 3.51296 16.498
177 1 1 -0.834 6.6383 13.2114 76.7559
178 1 1 -0.834 1.04653 5.039 75.1083
179 1 1 -0.834 16.5768 21.0305 56.6664
180 1 1 -0.834 3.82386 16.0702 73.3524
181 1 1 -0.834 9.61155 10.7814 4.54964
182 1 1 -0.834 19.3625 20.5993 31.5963
183 1 1 -0.834 13.3475 3.12089 79.4081
184 1 1 -0.834 10.5616 3.65383 21.3341
185 1 1 -0.834 19.5597 17.6541 79.8508
186 1 1 -0.834 23.0311 8.38096 12.5636
187 1 1 -0.834 4.80953 6.13459 59.1924
188 1 1 -0.834 15.2964 8.42189 75.7541
189 1 1 -0.834 15.7187 12.583 67.4426
190 1 1 -0.834 20.5438 17.2296 72.7695
191 1 1 -0.834 22.8268 15.6168 79.6779
192 1 1 -0.834 11.4608 3.78267 82.9181
193 1 1 -0.834 13.4171 4.57571 60.6579
194 1 1 -0.834 4.6715 21.5334 15.8333
195 1 1 -0.834 19.1579 4.10932 19.1511
196 1 1 -0.834 8.89594 12.9814 48.7262
197 1 1 -0.834 7.54643 16.2082 82.8853
198 1 1 -0.834 10.2681 3.16434 43.9679
199 1 1 -0.834 11.754 12.9372 76.1276
200 1 1 -0.834 7.01358 18.9288 47.3233
201 1 1 -0.834 12.0396 17.0392 70.6341
202 1 1 -0.834 5.04685 9.21443 48.7122
203 1 1 -0.834 19.5858 15.5816 51.7417
204 1 1 -0.834 11.2477 23.2588 65.2831
205 1 1 -0.834 18.1279 12.3974 8.03684
206 1 1 -0.834 17.6867 9.62202 38.9194
207 1 1 -0.834 3.33701 0.934825 73.7435
208 1 1 -0.834 14.6996 0.688847 70.8039
209 1 1 -0.834 3.70995 21.1435 52.4488
210 1 1 -0.834 18.6709 17.1014 9.99666
211 1 1 -0.834 0.97113 16.3856 86.8545
212 1 1 -0.834 2.12226 22.4263 63.0316
213 1 1 -0.834 13.4237 12.1749 33.3201
214 1 1 -0.834 4.58185 17.6276 71.1191
215 1 1 -0.834 20.4466 0.945353 67.5327
216 1 1 -0.834 0.538363 1.19795 4.63358
217 1 1 -0.834 6.86945 0.0104759 51.6993
218 1 1 -0.834 10.6036 15.7485 10.4221
219 1 1 -0.834 10.3372 24.0939 19.1938
220 1 1 -0.834 6.05348 15.9845 46.3886
221 1 1 -0.834 15.4532 18.1882 66.9562
222 1 1 -0.834 6.64804 10.786 22.9378
223 1 1 -0.834 21.4775 15.4113 56.6418
224 1 1 -0.834 12.3042 22.49 41.4321
225 1 1 -0.834 2.252 2.06149 6.56574
226 1 1 -0.834 23.1131 22.7852 68.1609
227 1 1 -0.834 23.105 9.8625 76.0785
228 1 1 -0.834 6.33359 13.6162 51.9592
229 1 1 -0.834 20.8316 22.6762 61.5562
230 1 1 -0.834 14.1625 24.2457 53.5765
231 1 1 -0.834 7.22773 5.58555 32.4668
232 1 1 -0.834 14.6814 20.0938 73.9524
233 1 1 -0.834 13.952 0.595385 58.5498
234 1 1 -0.834 8.20395 18.8265 69.7379
235 1 1 -0.834 2.56413 12.5163 54.8214
236 1 1 -0.834 13.9338 13.5064 54.2787
237 1 1 -0.834 6.61185 5.96384 55.6043
238 1 1 -0.834 17.7674 8.34293 13.9764
239 1 1 -0.834 7.74259 2.97909 33.758
240 1 1 -0.834 7.00271 18.2202 72.045
241 1 1 -0.834 14.4354 4.61611 69.2195
242 1 1 -0.834 4.5555 9.25021 3.48345
243 1 1 -0.834 1.04055 20.9075 78.8446
244 1 1 -0.834 8.7855 19.1682 62.1966
245 1 1 -0.834 8.2124 15.0405 56.0785
246 1 1 -0.834 2.43549 12.6856 0.132787
247 1 1 -0.834 2.99084 8.9175 65.589
248 1 1 -0.834 15.1277 2.83647 61.5308
249 1 1 -0.834 13.5854 14.2638 5.41872
250 1 1 -0.834 11.7865 17.9365 9.29863
251 1 1 -0.834 23.4946 0.991493 54.6176
252 1 1 -0.834 14.0219 1.79874 55.6891
253 1 1 -0.834 21.4977 21.0987 59.5254
254 1 1 -0.834 3.59616 6.83517 63.5054
255 1 1 -0.834 7.40937 23.9055 46.7828
256 1 1 -0.834 17.0947 3.93947 63.1765
257 1 1 -0.834 1.65999 22.6232 72.7517
258 1 1 -0.834 8.21579 20.9082 67.7827
259 1 1 -0.834 12.2347 14.353 49.0003
260 1 1 -0.834 18.2656 5.87752 60.1311
261 1 1 -0.834 16.8308 19.7996 43.637
262 1 1 -0.834 1.48855 6.99341 35.9191
263 1 1 -0.834 2.75576 17.1583 58.3539
264 1 1 -0.834 5.2152 11.4916 1.60283
265 1 1 -0.834 14.1815 9.56164 27.1951
266 1 1 -0.834 5.53381 19.5514 83.3469
267 1 1 -0.834 6.69714 8.34719 62.6941
268 1 1 -0.834 8.39187 17.9092 13.2512
269 1 1 -0.834 19.7622 23.5151 45.4654
270 1 1 -0.834 8.34064 5.45675 29.9659
271 1 1 -0.834 21.4101 4.27577 15.0169
272 1 1 -0.834 19.7956 22.6128 79.5775
273 1 1 -0.834 4.01908 4.64441 71.3914
274 1 1 -0.834 14.5225 18.9165 10.1949
275 1 1 -0.834 1.03147 15.898 76.3164
276 1 1 -0.834 5.44237 4.88742 49.7056
277 1 1 -0.834 18.4939 21.8939 71.8177
278 1 1 -0.834 0.580499 17.6155 1.90687
279 1 1 -0.834 2.73219 7.46769 48.4543
280 1 1 -0.834 17.7099 1.39288 67.9468
281 1 1 -0.834 8.30002 0.450175 67.5493
282 1 1 -0.834 9.18754 14.7709 60.7422
283 1 1 -0.834 13.1023 17.3835 79.3863
284 1 1 -0.834 11.2211 1.18569 49.6031
285 1 1 -0.834 9.66365 16.4572 68.2202
286 1 1 -0.834 4.40552 12.3385 60.3895
287 1 1 -0.834 22.6728 1.23003 43.6734
288 1 1 -0.834 12.1953 16.6605 58.6984
289 1 1 -0.834 0.985048 17.5169 71.8297
290 1 1 -0.834 15.6311 2.22235 44.9246
291 1 1 -0.834 23.6543 17.2443 58.3066
292 1 1 -0.834 4.09188 10.1001 58.9191
293 1 1 -0.834 6.29142 22.4792 53.3688
294 1 1 -0.834 0.199039 0.36098 28.5508
295 1 1 -0.834 20.4903 14.6135 46.5997
296 1 1 -0.834 21.4581 23.4275 6.76057
297 1 1 -0.834 3.24443 16.3007 45.9116
298 1 1 -0.834 11.6936 23.3272 83.4328
299 1 1 -0.834 14.1805 20.9795 46.3741
300 1 1 -0.834 21.9652 9.67904 46.4389
301 1 1 -0.834 22.0209 21.1195 47.2654
302 1 1 -0.834 3.47258 3.04303 33.0483
303 1 1 -0.834 17.4631 6.51389 56.7855
304 1 1 -0.834 23.2886 12.6242 46.5551
305 1 1 -0.834 11.3493 23.6124 79.2443
306 1 1 -0.834 13.0322 5.49877 84.3223
307 1 1 -0.834 14.163 14.9549 32.8322
308 1 1 -0.834 19.6445 10.5465 80.7551
309 1 1 -0.834 24.3746 12.8236 65.055
310 1 1 -0.834 3.10647 14.4018 17.4066
311 1 1 -0.834 10.1625 6.24366 43.1475
312 1 1 -0.834 13.0168 11.3378 5.30845
313 1 1 -0.834 5.80489 20.0669 44.7719
314 1 1 -0.834 10.9073 21.2669 62.34
315 1 1 -0.834 21.3619 21.3383 22.5774
316 1 1 -0.834 9.86068 1.29261 80.451
317 1 1 -0.834 22.4001 11.1158 81.1682
318 1 1 -0.834 18.4368 8.24119 75.5135
319 1 1 -0.834 22.7791 20.2055 66.9132
320 1 1 -0.834 17.152 18.7986 32.1294
321 1 1 -0.834 4.1633 17.806 48.585
322 1 1 -0.834 21.8255 8.99478 70.3684
323 1 1 -0.834 9.45326 15.1743 43.0903
324 1 1 -0.834 10.7646 9.44079 56.2902
325 1 1 -0.834 6.71336 14.3987 43.9949
326 1 1 -0.834 20.3613 5.24025 47.5172
327 1 1 -0.834 8.80094 0.268748 78.1062
328 1 1 -0.834 24.0638 13.5449 75.3593
329 1 1 -0.834 22.3892 7.01083 36.6771
330 1 1 -0.834 4.49739 2.72597 54.894
331 1 1 -0.834 12.5948 20.0792 57.5446
332 1 1 -0.834 0.819019 11.0969 19.5749
333 1 1 -0.834 8.25667 13.1357 64.9344
334 1 1 -0.834 8.06337 18.9821 82.5672
335 1 1 -0.834 2.00277 1.51448 57.6271
336 1 1 -0.834 0.414434 21.0463 1.7418
337 1 1 -0.834 1.3377 23.0019 54.0147
338 1 1 -0.834 3.23383 4.55195 35.3216
339 1 1 -0.834 0.183752 23.9263 64.195
340 1 1 -0.834 0.307535 5.26558 32.4483
341 1 1 -0.834 7.70402 19.8538 42.9467
342 1 1 -0.834 7.49106 10.8709 6.43621
343 1 1 -0.834 14.7103 2.96766 65.6376
344 1 1 -0.834 2.60918 14.0351 77.5857
345 1 1 -0.834 19.4693 9.49578 62.4864
346 1 1 -0.834 0.49916 3.47498 81.2754
347 1 1 -0.834 19.8598 17.024 7.54718
348 1 1 -0.834 6.9055 1.57794 37.6071
349 1 1 -0.834 8.31167 22.7808 14.7706
350 1 1 -0.834 9.18652 23.5176 82.0576
351 1 1 -0.834 20.2539 11.8127 65.1193
352 1 1 -0.834 18.2553 20.7878 76.9879
353 1 1 -0.834 15.7541 8.92584 62.3112
354 1 1 -0.834 24.3572 12.6891 44.0258
355 1 1 -0.834 19.7577 16.6363 58.5446
356 1 1 -0.834 4.7345 12.8807 78.9858
357 1 1 -0.834 3.10735 15.8443 41.7257
358 1 1 -0.834 22.8626 15.5332 47.5023
359 1 1 -0.834 6.12437 2.91288 47.2297
360 1 1 -0.834 16.8999 0.209886 76.8283
361 1 1 -0.834 21.5277 10.3945 57.3014
362 1 1 -0.834 18.6746 2.11242 86.1621
363 1 1 -0.834 5.66603 13.0919 49.4174
364 1 1 -0.834 24.0596 6.72341 52.549
365 1 1 -0.834 10.5651 20.4471 47.9767
366 1 1 -0.834 3.92647 15.1287 50.6027
367 1 1 -0.834 10.5282 19.0439 59.5414
368 1 1 -0.834 14.6252 21.2176 42.334
369 1 1 -0.834 17.4893 10.0685 60.5239
370 1 1 -0.834 7.75616 22.1132 60.288
371 1 1 -0.834 20.474 20.1068 44.1325
372 1 1 -0.834 19.6879 3.38028 49.4488
373 1 1 -0.834 9.80619 18.1214 49.8231
374 1 1 -0.834 23.5764 4.57394 67.04
375 1 1 -0.834 11.9229 13.1145 43.7175
376 1 1 -0.834 0.36141 8.20704 65.8305
377 1 1 -0.834 0.699478 13.14 48.5406
378 1 1 -0.834 0.501961 9.41558 49.4993
379 1 1 -0.834 16.4595 19.3996 64.6048
380 1 1 -0.834 4.86727 22.6684 44.5082
381 1 1 -0.834 6.74318 11.5405 67.0494
382 1 1 -0.834 1.25315 20.477 4.31578
383 1 1 -0.834 21.86 3.23431 72.9382
384 1 1 -0.834 8.00189 9.36383 58.1929
385 1 1 -0.834 2.20914 14.1666 80.2909
386 1 1 -0.834 18.7857 1.27994 55.6074
387 1 1 -0.834 20.6868 6.88123 12.4272
388 1 1 -0.834 5.34993 19.7821 69.0557
389 1 1 -0.834 13.2053 18.7413 63.9357
390 1 1 -0.834 11.243 18.4184 45.6749
391 1 1 -0.834 17.0789 10.8036 77.1167
392 1 1 -0.834 20.131 24.4293 77.4441
393 1 1 -0.834 2.4249 19.0333 82.0424
394 1 1 -0.834 8.19745 7.85834 76.1215
395 1 1 -0.834 14.9483 2.75762 1.93534
396 1 1 -0.834 7.64776 8.8299 70.6961
397 1 1 -0.834 5.46246 5.12948 4.88592
398 1 1 -0.834 10.5359 4.37828 79.5868
399 1 1 -0.834 11.3018 0.117011 52.1248
400 1 1 -0.834 4.72065 3.10538 62.4058
401 1 1 -0.834 2.97207 15.1158 2.07999
402 1 1 -0.834 13.1372 9.35014 57.5029
403 1 1 -0.834 22.3418 19.4109 63.4695
404 1 1 -0.834 8.49907 6.92535 53.4002
405 1 1 -0.834 3.05603 16.9009 18.5761
406 1 1 -0.834 12.571 2.45443 18.0774
407 1 1 -0.834 22.2913 10.0938 53.4046
408 1 1 -0.834 9.97819 19.0366 79.888
409 1 1 -0.834 20.9155 19.9754 54.5483
410 1 1 -0.834 21.8434 22.9644 55.0882
411 1 1 -0.834 9.33616 20.6639 53.1285
412 1 1 -0.834 11.9176 6.96922 57.8339
413 1 1 -0.834 18.5975 14.1568 48.567
414 1 1 -0.834 23.2922 0.0653317 60.0241
415 1 1 -0.834 13.0913 17.4536 67.9499
416 1 1 -0.834 3.38644 13.6373 47.6216
417 1 1 -0.834 16.5603 12.1454 81.1623
418 1 1 -0.834 14.4991 22.8936 56.7685
419 1 1 -0.834 19.6342 17.5574 31.8167
420 1 1 -0.834 7.85603 18.404 53.7054
421 1 1 -0.834 12.7149 11.1311 66.7842
422 1 1 -0.834 19.3917 6.27929 14.963
423 1 1 -0.834 1.57729 10.1623 80.1046
424 1 1 -0.834 21.5287 2.25565 47.7006
425 1 1 -0.834 22.4252 0.521345 79.4438
426 1 1 -0.834 16.9249 1.57841 82.5004
427 1 1 -0.834 0.341062 5.00654 37.5359
428 1 1 -0.834 2.82824 8.66181 42.0243
429 1 1 -0.834 17.7052 5.86283 21.3036
430 1 1 -0.834 8.41567 10.1048 28.3272
431 1 1 -0.834 1.97211 15.5495 60.9857
432 1 1 -0.834 10.2936 24.2818 40.0592
433 1 1 -0.834 1.12575 19.7274 27.9314
434 1 1 -0.834 23.3535 9.1264 18.1595
435 1 1 -0.834 9.47927 9.8783 47.6751
436 1 1 -0.834 18.8549 10.3347 48.4753
437 1 1 -0.834 4.26946 7.132 6.30588
438 1 1 -0.834 16.1044 17.0215 46.3135
439 1 1 -0.834 0.572375 3.05986 30.4838
440 1 1 -0.834 0.848449 10.6915 67.9136
441 1 1 -0.834 0.66811 9.44984 52.2587
442 1 1 -0.834 13.8825 0.836921 48.8428
443 1 1 -0.834 17.4848 24.1557 20.3967
444 1 1 -0.834 3.10871 23.3014 46.932
445 1 1 -0.834 18.5952 13.4167 61.4641
446 1 1 -0.834 17.4723 5.10799 17.3518
447 1 1 -0.834 1.58397 22.2239 26.4901
448 1 1 -0.834 20.6072 8.49453 16.4218
449 1 1 -0.834 0.502013 7.89666 70.6701
450 1 1 -0.834 4.96962 22.719 77.5416
451 1 1 -0.834 13.5253 17.6235 56.423
452 1 1 -0.834 13.4194 10.9178 55.1919
453 1 1 -0.834 24.1999 19.3264 85.646
454 1 1 -0.834 8.71028 9.18163 64.6865
455 1 1 -0.834 17.42 17.9167 59.5346
456 1 1 -0.834 17.9461 14.9395 81.0437
457 1 1 -0.834 10.1617 9.322 74.6871
458 1 1 -0.834 0.840926 12.1222 77.4947
459 1 1 -0.834 10.9508 17.2906 38.6604
460 1 1 -0.834 11.178 8.42743 42.2851
461 1 1 -0.834 18.5075 7.73471 66.318
462 1 1 -0.834 22.4069 12.2374 39.8262
463 1 1 -0.834 10.733 13.4306 3.69723
464 1 1 -0.834 5.75771 7.03884 80.542
465 1 1 -0.834 15.7011 1.13704 18.1702
466 1 1 -0.834 17.0891 3.26937 59.7148
467 1 1 -0.834 0.796069 18.4619 21.5039
468 1 1 -0.834 0.868069 2.66017 68.0331
469 1 1 -0.834 9.52029 20.9911 71.686
470 1 1 -0.834 20.2659 2.99556 64.8645
471 1 1 -0.834 19.714 21.4689 4.30153
472 1 1 -0.834 12.1406 19.3134 17.0346
473 1 1 -0.834 2.53705 19.5547 84.7969
474 1 1 -0.834 11.4594 8.67346 66.5703
475 1 1 -0.834 17.7709 11.3492 13.8822
476 1 1 -0.834 1.26069 5.56253 54.3354
477 1 1 -0.834 19.144 1.85823 62.6149
478 1 1 -0.834 15.2521 13.3493 45.1775
479 1 1 -0.834 19.9339 23.3151 69.1408
480 1 1 -0.834 12.3721 6.11654 80.943
481 1 1 -0.834 4.09492 11.7382 81.7505
482 1 1 -0.834 23.2368 2.85622 10.2234
483 1 1 -0.834 8.91666 19.3851 18.8063
484 1 1 -0.834 16.2946 17.0696 11.3504
485 1 1 -0.834 21.1694 17.513 2.70966
486 1 1 -0.834 9.6364 5.95929 74.7124
487 1 1 -0.834 24.237 0.196185 51.4618
488 1 1 -0.834 19.8121 22.4193 48.4256
489 1 1 -0.834 4.54123 22.0148 50.0025
490 1 1 -0.834 15.1384 7.65455 56.4474
491 1 1 -0.834 3.8243 7.03611 73.1044
492 1 1 -0.834 2.39963 15.122 53.1562
493 1 1 -0.834 24.0731 22.1292 24.5512
494 1 1 -0.834 9.89002 18.5612 75.1121
495 1 1 -0.834 0.943744 6.00612 50.2364
496 1 1 -0.834 14.3836 14.6897 37.391
497 1 1 -0.834 11.4217 2.33286 47.2113
498 1 1 -0.834 15.8075 4.2547 81.8211
499 1 1 -0.834 20.7847 6.49372 59.479
500 1 1 -0.834 11.9526 10.2083 76.8217
501 1 1 -0.834 7.16778 17.2978 59.4741
502 1 1 -0.834 20.349 20.4939 24.9445
503 1 1 -0.834 16.6743 22.2676 46.8562
504 1 1 -0.834 2.63989 23.946 70.4192
505 1 1 -0.834 0.624095 18.1927 47.8267
506 1 1 -0.834 9.71655 4.40694 3.08778
507 1 1 -0.834 18.9866 22.0327 42.5408
508 1 1 -0.834 21.3879 9.14739 10.561
509 1 1 -0.834 6.71269 12.147 69.6738
510 1 1 -0.834 20.9717 16.478 61.201
511 1 1 -0.834 10.3884 21.9104 58.9201
512 1 1 -0.834 1.24952 19.5745 52.316
513 1 1 -0.834 21.5307 18.8024 6.24553
514 1 1 -0.834 7.33583 14.9197 72.0748
515 1 1 -0.834 15.6752 15.4074 8.90178
516 1 1 -0.834 6.26255 5.58558 52.6154
517 1 1 -0.834 13.2266 8.6875 4.91088
518 1 1 -0.834 6.69747 16.8582 78.7805
519 1 1 -0.834 16.7123 23.0931 79.6306
520 1 1 -0.834 18.2129 18.6674 45.8267
521 1 1 -0.834 13.876 10.176 60.1399
522 1 1 -0.834 12.3729 8.39547 2.01506
523 1 1 -0.834 22.1512 21.0068 31.4172
524 1 1 -0.834 21.1782 17.9843 46.5413
525 1 1 -0.834 11.2552 12.1583 31.6603
526 1 1 -0.834 1.86811 19.7372 24.0896
527 1 1 -0.834 20.9534 8.32548 77.293
528 1 1 -0.834 0.812345 6.1114 46.1553
529 1 1 -0.834 3.46577 3.64681 75.2358
530 1 1 -0.834 11.951 1.35721 41.9
531 1 1 -0.834 16.9801 5.58233 65.7727
532 1 1 -0.834 13.2124 23.882 17.2349
533 1 1 -0.834 22.6006 11.2339 67.3413
534 1 1 -0.834 10.5779 14.6598 78.1787
535 1 1 -0.834 14.1051 13.0915 59.6074
536 1 1 -0.834 9.87574 5.29707 51.3576
537 1 1 -0.834 11.1809 6.7388 30.0583
538 1 1 -0.834 16.5874 21.1575 2.94548
539 1 1 -0.834 12.485 4.91319 47.0079
540 1 1 -0.834 15.8581 11.5169 57.745
541 1 1 -0.834 8.46387 22.3858 11.1873
542 1 1 -0.834 24.1276 4.11104 58.8687
543 1 1 -0.834 18.4314 0.110815 47.5664
544 1 1 -0.834 8.42834 7.03191 87.5213
545 1 1 -0.834 0.333754 1.06423 70.2213
546 1 1 -0.834 2.01192 24.0344 30.4186
547 1 1 -0.834 2.23056 19.782 67.5123
548 1 1 -0.834 2.16868 14.7286 70.2346
549 1 1 -0.834 17.5955 7.31274 53.0983
550 1 1 -0.834 20.2516 15.9514 34.0974
551 1 1 -0.834 12.4973 15.9558 64.2247
552 1 1 -0.834 7.10793 3.45343 54.0204
553 1 1 -0.834 2.24371 23.1292 58.905
554 1 1 -0.834 9.58893 21.2893 83.5833
555 1 1 -0.834 21.6024 8.48594 61.0558
556 1 1 -0.834 5.69738 12.6604 55.1759
557 1 1 -0.834 24.2466 14.1417 17.5655
558 1 1 -0.834 14.7352 6.94875 82.8019
559 1 1 -0.834 16.86 2.8594 20.1961
560 1 1 -0.834 4.83287 14.0659 70.9297
561 1 1 -0.834 21.5407 10.2593 50.6075
562 1 1 -0.834 15.1138 10.8773 9.56924
563 1 1 -0.834 23.3915 13.6953 50.461
564 1 1 -0.834 2.64612 20.148 61.6012
565 1 1 -0.834 12.3956 4.66237 19.4856
566 1 1 -0.834 13.2553 16.6558 76.4811
567 1 1 -0.834 16.8119 22.689 69.5624
568 1 1 -0.834 21.1936 8.49879 20.2712
569 1 1 -0.834 4.10893 4.54151 80.2346
570 1 1 -0.834 23.5937 19.4974 23.761
571 1 1 -0.834 3.12935 10.7677 51.5437
572 1 1 -0.834 18.0698 23.473 3.07222
573 1 1 -0.834 19.814 7.75908 46.5656
574 1 1 -0.834 20.2748 15.0598 70.4843
575 1 1 -0.834 10.2249 11.9488 68.0515
576 1 1 -0.834 12.9545 9.19367 69.3614
577 1 1 -0.834 1.51115 15.9268 49.1359
578 1 1 -0.834 2.72038 8.44761 68.4113
579 1 1 -0.834 10.2148 19.1852 35.5659
580 1 1 -0.834 22.8731 17.7699 25.7602
581 1 1 -0.834 16.9399 16.815 53.8789
582 1 1 -0.834 23.2417 23.734 71.8476
583 1 1 -0.834 13.545 24.0861 66.6378
584 1 1 -0.834 1.51297 22.9186 43.695
585 1 1 -0.834 4.51297 18.4447 62.7776
586 1 1 -0.834 11.7428 16.1312 32.0283
587 1 1 -0.834 7.67981 17.2532 44.0308
588 1 1 -0.834 12.1771 10.1164 50.5702
589 1 1 -0.834 9.0193 8.87915 44.7774
590 1 1 -0.834 4.56647 20.9879 79.9153
591 1 1 -0.834 15.325 22.5684 72.4684
592 1 1 -0.834 7.67781 4.20643 72.0365
593 1 1 -0.834 24.1699 3.67361 71.3083
594 1 1 -0.834 10.6965 23.6066 68.1102
595 1 1 -0.834 6.47231 15.1949 87.2136
596 1 1 -0.834 0.239775 12.9359 23.1459
597 1 1 -0.834 2.49544 2.03792 79.6204
598 1 1 -0.834 8.65617 1.62632 75.5841
599 1 1 -0.834 18.4685 16.837 75.1843
600 1 1 -0.834 4.65532 0.0474657 54.7861
601 1 1 -0.834 6.23414 2.37551 50.2403
602 1 1 -0.834 15.4951 13.2325 50.645
603 1 1 -0.834 3.95966 1.09383 9.10119
604 1 1 -0.834 21.9551 21.3628 75.8194
605 1 1 -0.834 14.2771 24.3687 74.4204
606 1 1 -0.834 2.1857 16.4457 65.3158
607 1 1 -0.834 12.544 6.4334 44.3403
608 1 1 -0.834 18.3711 2.33127 72.5549
609 1 1 -0.834 17.1251 2.93922 42.334
610 1 1 -0.834 0.654561 7.07664 13.8207
611 1 1 -0.834 9.24896 6.48465 63.1572
612 1 1 -0.834 20.7286 18.6208 57.0559
613 1 1 -0.834 10.1832 10.2277 59.5972
614 1 1 -0.834 7.6017 24.3091 39.5798
615 1 1 -0.834 13.8944 8.40908 45.8979
616 1 1 -0.834 18.7484 22.7831 86.6933
617 1 1 -0.834 3.62985 24.1877 52.1943
618 1 1 -0.834 7.6784 19.5034 39.0189
619 1 1 -0.834 17.072 24.3825 62.8039
620 1 1 -0.834 19.5295 3.42081 45.7132
621 1 1 -0.834 4.07217 0.321026 49.3917
622 1 1 -0.834 5.78599 6.33616 69.3109
623 1 1 -0.834 22.773 8.07054 56.903
624 1 1 -0.834 18.6516 11.7584 74.9647
625 1 1 -0.834 17.1864 3.78586 69.3105
626 1 1 -0.834 0.445866 13.064 41.1529
627 1 1 -0.834 14.8746 5.46623 18.4381
628 1 1 -0.834 24.3947 24.0212 48.4513
629 1 1 -0.834 0.221989 7.35833 79.9141
630 1 1 -0.834 12.8217 1.00955 44.9669
631 1 1 -0.834 22.793 1.99563 61.6461
632 1 1 -0.834 8.82778 9.26668 23.4358
633 1 1 -0.834 22.7413 21.1761 70.9027
634 1 1 -0.834 6.90804 11.3827 59.6901
635 1 1 -0.834 1.61967 2.49889 36.155
636 1 1 -0.834 10.0316 4.93262 48.5967
637 1 1 -0.834 21.5963 6.24022 63.2077
638 1 1 -0.834 12.5276 0.859406 23.8884
639 1 1 -0.834 16.9557 19.2327 5.56889
640 1 1 -0.834 16.5411 22.8011 43.8648
641 1 1 -0.834 17.6189 21.8079 64.324
642 1 1 -0.834 3.76938 2.98514 38.5209
643 1 1 -0.834 8.70577 24.2847 43.6354
644 1 1 -0.834 19.3299 12.4128 16.7306
645 1 1 -0.834 3.28741 15.5197 26.3194
646 1 1 -0.834 23.7493 16.2282 23.6179
647 1 1 -0.834 2.62109 19.2791 73.6281
648 1 1 -0.834 14.6705 17.9368 59.5802
649 1 1 -0.834 15.8677 21.508 51.0271
650 1 1 -0.834 16.5836 13.433 36.2159
651 1 1 -0.834 12.0212 4.38865 0.92829
652 1 1 -0.834 10.5883 11.5879 7.30089
653 1 1 -0.834 13.7387 6.51026 21.0121
654 1 1 -0.834 15.2155 17.523 37.4612
655 1 1 -0.834 12.2724 1.1361 81.8832
656 1 1 -0.834 20.0721 16.5189 54.3756
657 1 1 -0.834 10.9509 24.359 37.3199
658 1 1 -0.834 9.85416 7.48967 60.6651
659 1 1 -0.834 23.7568 9.11069 59.4457
660 1 1 -0.834 1.40036 3.98845 11.0112
661 1 1 -0.834 2.10875 6.09023 77.6302
662 1 1 -0.834 3.97136 4.21647 65.5807
663 1 1 -0.834 18.2965 19.5566 53.1067
664 1 1 -0.834 2.95129 23.4983 33.088
665 1 1 -0.834 14.0247 22.4536 48.6774
666 1 1 -0.834 9.52365 9.09197 50.8076
667 1 1 -0.834 22.9649 14.9533 62.3606
668 1 1 -0.834 13.5375 21.0876 65.8853
669 1 1 -0.834 12.986 11.9672 46.4577
670 1 1 -0.834 23.8882 14.756 59.3035
671 1 1 -0.834 23.6372 3.6404 51.1247
672 1 1 -0.834 15.5952 19.9263 34.3147
673 1 1 -0.834 1.34548 3.28878 48.9946
674 1 1 -0.834 10.14 3.5124 68.9694
675 1 1 -0.834 13.1136 9.51018 29.7599
676 1 1 -0.834 12.9227 9.49145 62.8499
677 1 1 -0.834 5.57881 7.47162 1.60976
678 1 1 -0.834 3.34178 4.32558 52.7591
679 1 1 -0.834 15.3925 7.2698 59.3697
680 1 1 -0.834 12.1055 18.6547 51.7375
681 1 1 -0.834 11.2612 11.0279 27.3467
682 1 1 -0.834 0.103788 17.2948 81.4511
683 1 1 -0.834 14.9358 0.769267 80.594
684 1 1 -0.834 1.15212 17.8758 60.8201
685 1 1 -0.834 23.1387 5.31731 39.8355
686 1 1 -0.834 4.93724 8.3791 56.9832
687 1 1 -0.834 7.11634 16.636 49.0477
688 1 1 -0.834 18.3963 0.804796 26.6656
689 1 1 -0.834 19.3531 11.6763 69.4048
690 1 1 -0.834 24.4162 6.7276 10.3047
691 1 1 -0.834 7.98839 22.7587 76.4535
692 1 1 -0.834 18.5047 19.5911 2.18748
693 1 1 -0.834 21.6439 23.922 24.2294
694 1 1 -0.834 22.2139 17.0183 68.9174
695 1 1 -0.834 9.17773 12.7588 74.6543
696 1 1 -0.834 3.10619 19.7026 77.3654
697 1 1 -0.834 20.0195 17.3028 43.6699
698 1 1 -0.834 7.41482 19.2913 57.6485
699 1 1 -0.834 24.4225 4.20443 78.7248
700 1 1 -0.834 7.05397 5.5448 2.88282
701 1 1 -0.834 13.3664 3.14825 25.0471
702 1 1 -0.834 11.6449 3.26876 58.7984
703 1 1 -0.834 1.6692 3.0548 45.8122
704 1 1 -0.834 24.2914 6.37562 43.1261
705 1 1 -0.834 22.1565 22.5197 44.4134
706 1 1 -0.834 17.7218 12.91 78.9182
707 1 1 -0.834 22.8977 0.670899 66.561
708 1 1 -0.834 4.76677 6.44375 77.9636
709 1 1 -0.834 17.2085 1.25355 1.22355
710 1 1 -0.834 3.5931 22.6036 8.96509
711 1 1 -0.834 8.71014 2.30707 41.2091
712 1 1 -0.834 3.98974 16.9884 78.0147
713 1 1 -0.834 12.8514 9.08904 53.2935
714 1 1 -0.834 16.2596 23.8717 66.3569
715 1 1 -0.834 20.4922 5.76977 65.7007
716 1 1 -0.834 17.3057 6.98244 69.5124
717 1 1 -0.834 11.0122 2.12201 56.1459
718 1 1 -0.834 15.6799 0.87227 22.1916
719 1 1 -0.834 7.24884 3.75442 68.3539
720 1 1 -0.834 0.417016 20.1469 72.0255
721 1 1 -0.834 7.19532 4.88718 77.1864
722 1 1 -0.834 16.7312 4.92856 44.3596
723 1 1 -0.834 1.39872 16.5579 43.9325
724 1 1 -0.834 15.024 18.087 52.1751
725 1 1 -0.834 16.3053 10.905 72.2725
726 1 1 -0.834 21.3423 3.86487 79.2016
727 1 1 -0.834 21.1395 9.01465 67.3331
728 1 1 -0.834 16.4057 14.1256 74.1742
729 1 1 -0.834 23.2141 15.3034 66.3478
730 1 1 -0.834 12.6644 15.7074 81.3967
731 1 1 -0.834 2.05146 11.1568 83.4348
732 1 1 -0.834 21.0088 14.3051 76.1476
733 1 1 -0.834 9.41182 21.7079 56.165
734 1 1 -0.834 1.45032 16.5533 79.2216
735 1 1 -0.834 17.1405 4.74586 71.9397
736 1 1 -0.834 8.79223 12.3969 43.6683
737 1 1 -0.834 7.11206 10.0019 55.5127
738 1 1 -0.834 11.275 23.4074 54.6916
739 1 1 -0.834 5.26205 23.7708 62.0363
740 1 1 -0.834 6.70055 22.5158 56.7704
741 1 1 -0.834 15.7843 15.5015 59.2189
742 1 1 -0.834 23.8152 19.0466 30.0846
743 1 1 -0.834 23.3403 3.19832 45.9221
744 1 1 -0.834 7.21921 13.1619 25.0177
745 1 1 -0.834 22.5682 16.5653 75.9971
746 1 1 -0.834 19.7555 23.6116 57.3546
747 1 1 -0.834 10.3065 1.65518 65.7045
748 1 1 -0.834 2.06101 16.4618 23.1211
749 1 1 -0.834 5.64658 23.4322 70.5802
750 1 1 -0.834 13.4016 14.2064 74.0812
751 1 1 -0.834 1.48043 22.5513 68.063
752 1 1 -0.834 21.4187 6.28857 71.3595
753 1 1 -0.834 3.54327 11.5389 72.6356
754 1 1 -0.834 20.3884 0.362562 71.5392
755 1 1 -0.834 20.927 7.40247 41.0509
756 1 1 -0.834 14.1898 6.35284 78.9611
757 1 1 -0.834 15.6481 18.3345 7.83982
758 1 1 -0.834 14.6921 2.49323 83.8986
759 1 1 -0.834 1.44041 8.83011 77.3815
760 1 1 -0.834 10.974 9.92605 24.8505
761 1 1 -0.834 2.61797 7.62769 10.2745
762 1 1 -0.834 3.10318 23.0324 56.2319
763 1 1 -0.834 5.65123 22.1581 67.8836
764 1 1 -0.834 9.16327 16.7647 72.9436
765 1 1 -0.834 13.3366 11.6307 72.4469
766 1 1 -0.834 22.3989 4.70301 60.9735
767 1 1 -0.834 8.06822 13.2033 4.1305
768 1 1 -0.834 1.49642 5.79628 65.7528