 DBCSR| CPU Multiplication driver                                           XSMM
 DBCSR| Multrec recursion limit                                              512
 DBCSR| Multiplication stack size                                           1000
 DBCSR| Maximum elements for images                                    UNLIMITED
 DBCSR| Multiplicative factor virtual images                                   1
 DBCSR| Use multiplication densification                                       T
 DBCSR| Multiplication size stacks                                             3
 DBCSR| Use memory pool for CPU allocation                                     F
 DBCSR| Number of 3D layers                                               SINGLE
 DBCSR| Use MPI memory allocation                                              F
 DBCSR| Use RMA algorithm                                                      F
 DBCSR| Use Communication thread                                               T
 DBCSR| Communication thread load                                             87
 DBCSR| MPI: My node id                                                        0
 DBCSR| MPI: Number of nodes                                                  24
 DBCSR| OMP: Current number of threads                                         1
 DBCSR| OMP: Max number of threads                                             1
 DBCSR| Split modifier for TAS multiplication algorithm                  1.0E+00


  **** **** ******  **  PROGRAM STARTED AT               2022-09-04 17:49:05.644
 ***** ** ***  *** **   PROGRAM STARTED ON         node1306.palmetto.clemson.edu
 **    ****   ******    PROGRAM STARTED BY                               xiutinc
 ***** **    ** ** **   PROGRAM PROCESS ID                                195168
  **** **  *******  **  PROGRAM STARTED IN    /scratch1/xiutinc/CP2K-97008.pbs02

 CP2K| version string:                                          CP2K version 9.1
 CP2K| source code revision number:                                  git:d8d7100
 CP2K| cp2kflags: omp libint fftw3 libxc parallel mpi3 scalapack xsmm           
 CP2K| is freely available from                            https://www.cp2k.org/
 CP2K| Program compiled at                          Mon Aug  8 12:17:03 EDT 2022
 CP2K| Program compiled on                         node0352.palmetto.clemson.edu
 CP2K| Program compiled for                           linux-rocky8-ivybridge-gcc
 CP2K| Data directory path    /software/spackages/linux-rocky8-ivybridge/gcc-9.5
 CP2K| Input file name                                             intE09_aq.inp

 GLOBAL| Force Environment number                                              1
 GLOBAL| Basis set file name                                          BASIS_file
 GLOBAL| Potential file name                                     POTENTIALS_file
 GLOBAL| MM Potential file name                                     MM_POTENTIAL
 GLOBAL| Coordinate file name                                    ./intE09_aq.xyz
 GLOBAL| Method name                                                        CP2K
 GLOBAL| Project name                                                  intE09_aq
 GLOBAL| Run type                                                        GEO_OPT
 GLOBAL| FFT library                                                       FFTW3
 GLOBAL| Diagonalization library                                       ScaLAPACK
 GLOBAL| Orthonormality check for eigenvectors                          DISABLED
 GLOBAL| Matrix multiplication library                                 ScaLAPACK
 GLOBAL| All-to-all communication in single precision                          F
 GLOBAL| FFTs using library dependent lengths                                  F
 GLOBAL| Grid backend                                                       AUTO
 GLOBAL| Global print level                                                  LOW
 GLOBAL| MPI I/O enabled                                                       T
 GLOBAL| Total number of message passing processes                            24
 GLOBAL| Number of threads for this process                                    1
 GLOBAL| This output is from process                                           0
 GLOBAL| Stack size for threads created by OpenMP (OMP_STACKSIZE)        default
 GLOBAL| CPU model name                Intel(R) Xeon(R) CPU E5-2680 v3 @ 2.50GHz
 GLOBAL| CPUID                                                              1002
 GLOBAL| Compiled for CPUID                                                 1001

 *** HINT in environment.F:869 :: The compiler target flags (x86_avx) used ***
 *** to build this binary cannot exploit all extensions of this CPU model  ***
 *** (x86_avx2). Consider compiler target flags as part of FCFLAGS and     ***
 *** CFLAGS (ARCH file).                                                   ***


 MEMORY| system memory details [Kb]
 MEMORY|                        rank 0           min           max       average
 MEMORY| MemTotal            131294764     131294764     131294764     131294764
 MEMORY| MemFree             123017328     123017328     123017328     123017328
 MEMORY| Buffers                  3336          3336          3336          3336
 MEMORY| Cached                2812516       2812516       2812516       2812516
 MEMORY| Slab                   655272        655272        655272        655272
 MEMORY| SReclaimable           276916        276916        276916        276916
 MEMORY| MemLikelyFree       126110096     126110096     126110096     126110096


 *******************************************************************************
 *******************************************************************************
 **                                                                           **
 **     #####                         ##              ##                      **
 **    ##   ##            ##          ##              ##                      **
 **   ##     ##                       ##            ######                    **
 **   ##     ##  ##   ##  ##   #####  ##  ##   ####   ##    #####    #####    **
 **   ##     ##  ##   ##  ##  ##      ## ##   ##      ##   ##   ##  ##   ##   **
 **   ##  ## ##  ##   ##  ##  ##      ####     ###    ##   ######   ######    **
 **    ##  ###   ##   ##  ##  ##      ## ##      ##   ##   ##       ##        **
 **     #######   #####   ##   #####  ##  ##  ####    ##    #####   ##        **
 **           ##                                                    ##        **
 **                                                                           **
 **                                                ... make the atoms dance   **
 **                                                                           **
 **            Copyright (C) by CP2K developers group (2000-2021)             **
 **                      J. Chem. Phys. 152, 194103 (2020)                    **
 **                                                                           **
 *******************************************************************************


 TOTAL NUMBERS AND MAXIMUM NUMBERS

  Total number of            - Atomic kinds:                                   5
                             - Atoms:                                        646
                             - Shell sets:                                   646
                             - Shells:                                      3137
                             - Primitive Cartesian functions:               3041
                             - Cartesian basis functions:                   8629
                             - Spherical basis functions:                   8027

  Maximum angular momentum of- Orbital basis functions:                        3
                             - Local part of the GTH pseudopotential:          2
                             - Non-local part of the GTH pseudopotential:      3


 SCF PARAMETERS         Density guess:                                   RESTART
                        --------------------------------------------------------
                        max_scf:                                             500
                        max_scf_history:                                       0
                        max_diis:                                              4
                        --------------------------------------------------------
                        eps_scf:                                        1.00E-06
                        eps_scf_history:                                0.00E+00
                        eps_diis:                                       1.00E-01
                        eps_eigval:                                     1.00E-05
                        --------------------------------------------------------
                        level_shift [a.u.]:                                 0.00
                        --------------------------------------------------------
                        Outer loop SCF in use 
                        No variables optimised in outer loop
                        eps_scf                                         1.00E-06
                        max_scf                                               50
                        No outer loop optimization
                        step_size                                       5.00E-01

 BFGS| Use rational function optimization for step estimation:                NO
 BFGS| Use model Hessian for initial guess:                                  YES
 BFGS| Restart Hessian:                                                       NO
 BFGS| Trust radius:                                                       0.472

 *******************************************************************************
 ***                     STARTING GEOMETRY OPTIMIZATION                      ***
 ***                                   BFGS                                  ***
 *******************************************************************************

 Number of electrons:                                                       3256
 Number of occupied orbitals:                                               1628
 Number of molecular orbitals:                                              1628

 Number of orbital functions:                                               8027
 Number of independent orbital functions:                                   8027

 Extrapolation method: initial_guess

 *** WARNING in qs_initial_guess.F:309 :: User requested to restart the   ***
 *** wavefunction from the file named: intE09_aq-RESTART.wfn. This file   ***
 *** does not exist. Please check the existence of the file or change     ***
 *** properly the value of the keyword WFN_RESTART_FILE_NAME. Calculation ***
 *** continues using ATOMIC GUESS.                                        ***



 SCF WAVEFUNCTION OPTIMIZATION

  ----------------------------------- OT ---------------------------------------
  Minimizer      : CG                  : conjugate gradient
  Preconditioner : FULL_ALL            : diagonalization, state selective
  Precond_solver : DEFAULT
  Line search    : 2PNT                : 2 energies, one gradient
  stepsize       :    0.15000000                  energy_gap     :    0.00100000
  eps_taylor     :   0.10000E-15                  max_taylor     :             4
  ----------------------------------- OT ---------------------------------------

  Step     Update method      Time    Convergence         Total energy    Change
  ------------------------------------------------------------------------------
     1 OT CG       0.15E+00   39.3     0.01575874     -7131.5010408508 -7.13E+03
     2 OT LS       0.69E-01    4.5                    -7090.6533823047
     3 OT CG       0.69E-01   14.0     0.06670193     -7082.0284710792  4.95E+01
     4 OT LS       0.14E-01    4.5                    -5616.5540044557
     5 OT CG       0.14E-01   11.4     0.02430730     -7056.3879926367  2.56E+01
     6 OT LS       0.14E-01    4.5                    -7094.8637890633
     7 OT CG       0.14E-01   11.2     0.01263605     -7094.9375223248 -3.85E+01
     8 OT LS       0.58E-01    4.5                    -7123.5614525696
     9 OT CG       0.58E-01   11.1     0.00978932     -7188.6128523248 -9.37E+01
    10 OT LS       0.83E-01    4.5                    -7238.8005988885
    11 OT CG       0.83E-01   11.2     0.00944020     -7248.9290900945 -6.03E+01
    12 OT LS       0.35E-01    4.5                    -7229.1192860052
    13 OT CG       0.35E-01   11.2     0.00910972     -7273.8039415491 -2.49E+01
    14 OT LS       0.37E-01    4.5                    -7293.4582712544
    15 OT CG       0.37E-01   11.1     0.00626316     -7293.5174021750 -1.97E+01
    16 OT LS       0.47E-01    4.5                    -7305.1410975562
    17 OT CG       0.47E-01   11.2     0.00443789     -7306.2727367409 -1.28E+01
    18 OT LS       0.74E-01    4.5                    -7315.3960001119
    19 OT CG       0.74E-01   11.1     0.00430209     -7316.2733180177 -1.00E+01
    20 OT LS       0.43E-01    4.5                    -7318.4776961321
    21 OT CG       0.43E-01   11.4     0.00306846     -7320.7985710287 -4.53E+00
    22 OT LS       0.79E-01    4.4                    -7324.6266935720
    23 OT CG       0.79E-01   11.2     0.00261794     -7325.8174641292 -5.02E+00
    24 OT LS       0.69E-01    4.5                    -7329.0309178837
    25 OT CG       0.69E-01   11.1     0.00219083     -7329.1406269192 -3.32E+00
    26 OT LS       0.99E-01    4.4                    -7331.8598357749
    27 OT CG       0.99E-01   11.2     0.00213935     -7332.1013796359 -2.96E+00
    28 OT LS       0.88E-01    4.5                    -7334.6384355681
    29 OT CG       0.88E-01   12.2     0.00209816     -7334.6877283975 -2.59E+00
    30 OT LS       0.81E-01    4.5                    -7336.9934024480
    31 OT CG       0.81E-01   11.5     0.00198328     -7337.0124655681 -2.32E+00
    32 OT LS       0.88E-01    4.5                    -7339.2415535129
    33 OT CG       0.88E-01   12.2     0.00191383     -7339.2532705935 -2.24E+00
    34 OT LS       0.76E-01    4.5                    -7341.0029187470
    35 OT CG       0.76E-01   11.2     0.00174237     -7341.0500869567 -1.80E+00
    36 OT LS       0.92E-01    4.6                    -7342.8174610454
    37 OT CG       0.92E-01   11.1     0.00168962     -7342.8690980924 -1.82E+00
    38 OT LS       0.82E-01    4.5                    -7344.3623435351
    39 OT CG       0.82E-01   11.1     0.00149789     -7344.3794661423 -1.51E+00
    40 OT LS       0.92E-01    4.4                    -7345.7249494224
    41 OT CG       0.92E-01   11.1     0.00138412     -7345.7402178897 -1.36E+00
    42 OT LS       0.90E-01    4.4                    -7346.8607904777
    43 OT CG       0.90E-01   11.1     0.00138096     -7346.8624172792 -1.12E+00
    44 OT LS       0.89E-01    4.4                    -7347.9501775949
    45 OT CG       0.89E-01   11.1     0.00126175     -7347.9502655113 -1.09E+00
    46 OT LS       0.89E-01    4.5                    -7348.8791602454
    47 OT CG       0.89E-01   11.1     0.00121145     -7348.8791923552 -9.29E-01
    48 OT LS       0.94E-01    4.5                    -7349.7845463964
    49 OT CG       0.94E-01   11.1     0.00117243     -7349.7862138495 -9.07E-01
    50 OT LS       0.94E-01    4.4                    -7350.6265623281
    51 OT CG       0.94E-01   11.3     0.00111519     -7350.6265118088 -8.40E-01
    52 OT LS       0.95E-01    4.5                    -7351.3939330712
    53 OT CG       0.95E-01   11.1     0.00103843     -7351.3940000272 -7.67E-01
    54 OT LS       0.10E+00    4.4                    -7352.1129387709
    55 OT CG       0.10E+00   11.1     0.00102363     -7352.1162360833 -7.22E-01
    56 OT LS       0.89E-01    4.5                    -7352.7104018506
    57 OT CG       0.89E-01   11.1     0.00096831     -7352.7240507067 -6.08E-01
    58 OT LS       0.96E-01    4.5                    -7353.3077524259
    59 OT CG       0.96E-01   11.1     0.00089501     -7353.3106782776 -5.87E-01
    60 OT LS       0.97E-01    4.4                    -7353.8203802061
    61 OT CG       0.97E-01   11.1     0.00084659     -7353.8204638969 -5.10E-01
    62 OT LS       0.99E-01    4.4                    -7354.2853034647
    63 OT CG       0.99E-01   11.1     0.00081388     -7354.2854639295 -4.65E-01
    64 OT LS       0.99E-01    4.4                    -7354.7107050006
    65 OT CG       0.99E-01   11.1     0.00078018     -7354.7107417727 -4.25E-01
    66 OT LS       0.96E-01    4.4                    -7355.0933258268
    67 OT CG       0.96E-01   11.3     0.00073591     -7355.0935126915 -3.83E-01
    68 OT LS       0.10E+00    4.5                    -7355.4477357704
    69 OT CG       0.10E+00   11.1     0.00070707     -7355.4481908942 -3.55E-01
    70 OT LS       0.97E-01    4.4                    -7355.7649164934
    71 OT CG       0.97E-01   11.1     0.00067432     -7355.7652780894 -3.17E-01
    72 OT LS       0.10E+00    4.4                    -7356.0623106324
    73 OT CG       0.10E+00   11.1     0.00064076     -7356.0625752912 -2.97E-01
    74 OT LS       0.99E-01    4.4                    -7356.3283236234
    75 OT CG       0.99E-01   11.1     0.00061272     -7356.3283516311 -2.66E-01
    76 OT LS       0.99E-01    4.4                    -7356.5713867223
    77 OT CG       0.99E-01   11.1     0.00058425     -7356.5713877746 -2.43E-01
    78 OT LS       0.99E-01    4.4                    -7356.7925213641
    79 OT CG       0.99E-01   14.0     0.00055965     -7356.7925214373 -2.21E-01
    80 OT LS       0.10E+00    4.4                    -7356.9968837033
    81 OT CG       0.10E+00   11.2     0.00053634     -7356.9968910573 -2.04E-01
    82 OT LS       0.10E+00    4.6                    -7357.1877517492
    83 OT CG       0.10E+00   11.1     0.00051881     -7357.1878028133 -1.91E-01
    84 OT LS       0.10E+00    4.4                    -7357.3650960152
    85 OT CG       0.10E+00   11.1     0.00050395     -7357.3651091923 -1.77E-01
    86 OT LS       0.10E+00    4.5                    -7357.5330580522
    87 OT CG       0.10E+00   11.1     0.00048725     -7357.5330584718 -1.68E-01
    88 OT LS       0.10E+00    4.4                    -7357.6900828482
    89 OT CG       0.10E+00   11.1     0.00047135     -7357.6900825996 -1.57E-01
    90 OT LS       0.10E+00    4.4                    -7357.8374454543
    91 OT CG       0.10E+00   11.1     0.00045577     -7357.8374457644 -1.47E-01
    92 OT LS       0.10E+00    4.5                    -7357.9754002614
    93 OT CG       0.10E+00   11.1     0.00044188     -7357.9754002592 -1.38E-01
    94 OT LS       0.10E+00    4.5                    -7358.1041804728
    95 OT CG       0.10E+00   11.1     0.00042609     -7358.1041894634 -1.29E-01
    96 OT LS       0.10E+00    4.5                    -7358.2243878570
    97 OT CG       0.10E+00   11.3     0.00041036     -7358.2243884177 -1.20E-01
    98 OT LS       0.10E+00    4.4                    -7358.3369818547
    99 OT CG       0.10E+00   11.1     0.00039723     -7358.3369922121 -1.13E-01
   100 OT LS       0.10E+00    4.4                    -7358.4426065376
   101 OT CG       0.10E+00   11.1     0.00038581     -7358.4426066668 -1.06E-01
   102 OT LS       0.10E+00    4.5                    -7358.5416395466
   103 OT CG       0.10E+00   11.2     0.00037185     -7358.5416444559 -9.90E-02
   104 OT LS       0.10E+00    4.5                    -7358.6341976062
   105 OT CG       0.10E+00   12.2     0.00035961     -7358.6341994188 -9.26E-02
   106 OT LS       0.10E+00    4.6                    -7358.7208835041
   107 OT CG       0.10E+00   11.4     0.00034716     -7358.7208834239 -8.67E-02
   108 OT LS       0.10E+00    5.2                    -7358.8019789028
   109 OT CG       0.10E+00   11.9     0.00033682     -7358.8019807274 -8.11E-02
   110 OT LS       0.10E+00    4.4                    -7358.8783845933
   111 OT CG       0.10E+00   11.1     0.00032584     -7358.8783844629 -7.64E-02
   112 OT LS       0.10E+00    4.4                    -7358.9496635810
   113 OT CG       0.10E+00   11.2     0.00031520     -7358.9496651919 -7.13E-02
   114 OT LS       0.10E+00    4.4                    -7359.0166477619
   115 OT CG       0.10E+00   11.1     0.00030523     -7359.0166484283 -6.70E-02
   116 OT LS       0.10E+00    4.4                    -7359.0793735825
   117 OT CG       0.10E+00   11.2     0.00029709     -7359.0793735828 -6.27E-02
   118 OT LS       0.10E+00    4.4                    -7359.1387906068
   119 OT CG       0.10E+00   11.1     0.00028774     -7359.1387904071 -5.94E-02
   120 OT LS       0.10E+00    4.5                    -7359.1945925740
   121 OT CG       0.10E+00   11.1     0.00027864     -7359.1945926228 -5.58E-02
   122 OT LS       0.10E+00    4.4                    -7359.2471913490
   123 OT CG       0.10E+00   11.1     0.00027061     -7359.2471921201 -5.26E-02
   124 OT LS       0.10E+00    4.5                    -7359.2966374456
   125 OT CG       0.10E+00   11.1     0.00026283     -7359.2966375589 -4.94E-02
   126 OT LS       0.10E+00    4.4                    -7359.3434848111
   127 OT CG       0.10E+00   11.2     0.00025582     -7359.3434855507 -4.68E-02
   128 OT LS       0.10E+00    4.6                    -7359.3874017579
   129 OT CG       0.10E+00   11.1     0.00024746     -7359.3874085843 -4.39E-02
   130 OT LS       0.10E+00    4.5                    -7359.4287126180
   131 OT CG       0.10E+00   11.1     0.00023925     -7359.4287131227 -4.13E-02
   132 OT LS       0.10E+00    4.5                    -7359.4673501407
   133 OT CG       0.10E+00   11.2     0.00023198     -7359.4673502727 -3.86E-02
   134 OT LS       0.10E+00    4.5                    -7359.5038538454
   135 OT CG       0.10E+00   11.2     0.00022571     -7359.5038549494 -3.65E-02
   136 OT LS       0.10E+00    4.5                    -7359.5383565027
   137 OT CG       0.10E+00   11.2     0.00021887     -7359.5383567734 -3.45E-02
   138 OT LS       0.10E+00    4.5                    -7359.5709168937
   139 OT CG       0.10E+00   11.2     0.00021251     -7359.5709170287 -3.26E-02
   140 OT LS       0.10E+00    4.5                    -7359.6015926534
   141 OT CG       0.10E+00   11.1     0.00020636     -7359.6015925709 -3.07E-02
   142 OT LS       0.10E+00    4.5                    -7359.6306288019
   143 OT CG       0.10E+00   11.2     0.00020162     -7359.6306295325 -2.90E-02
   144 OT LS       0.10E+00    4.6                    -7359.6582220160
   145 OT CG       0.10E+00   11.2     0.00019613     -7359.6582228112 -2.76E-02
   146 OT LS       0.10E+00    4.5                    -7359.6843878771
   147 OT CG       0.10E+00   11.1     0.00019082     -7359.6843878731 -2.62E-02
   148 OT LS       0.10E+00    4.5                    -7359.7091580724
   149 OT CG       0.10E+00   11.2     0.00018576     -7359.7091580051 -2.48E-02
   150 OT LS       0.10E+00    4.5                    -7359.7326410940
   151 OT CG       0.10E+00   11.2     0.00018198     -7359.7326411671 -2.35E-02
   152 OT LS       0.10E+00    4.5                    -7359.7551058871
   153 OT CG       0.10E+00   11.1     0.00017783     -7359.7551061907 -2.25E-02
   154 OT LS       0.10E+00    4.5                    -7359.7765453587
   155 OT CG       0.10E+00   13.4     0.00017325     -7359.7765454437 -2.14E-02
   156 OT LS       0.10E+00    4.5                    -7359.7970061494
   157 OT CG       0.10E+00   11.1     0.00016908     -7359.7970067215 -2.05E-02
   158 OT LS       0.10E+00    4.5                    -7359.8164731823
   159 OT CG       0.10E+00   11.2     0.00016575     -7359.8164731829 -1.95E-02
   160 OT LS       0.10E+00    4.4                    -7359.8352700012
   161 OT CG       0.10E+00   11.1     0.00016251     -7359.8352703333 -1.88E-02
   162 OT LS       0.10E+00    4.5                    -7359.8532921695
   163 OT CG       0.10E+00   11.2     0.00015937     -7359.8532924687 -1.80E-02
   164 OT LS       0.10E+00    4.4                    -7359.8706992993
   165 OT CG       0.10E+00   11.1     0.00015589     -7359.8706995483 -1.74E-02
   166 OT LS       0.11E+00    4.5                    -7359.8874459490
   167 OT CG       0.11E+00   11.1     0.00015361     -7359.8874466918 -1.67E-02
   168 OT LS       0.11E+00    4.5                    -7359.9036420010
   169 OT CG       0.11E+00   11.2     0.00015124     -7359.9036422494 -1.62E-02
   170 OT LS       0.10E+00    4.5                    -7359.9193085807
   171 OT CG       0.10E+00   11.2     0.00014840     -7359.9193087757 -1.57E-02
   172 OT LS       0.11E+00    4.5                    -7359.9344577835
   173 OT CG       0.11E+00   11.2     0.00014565     -7359.9344579987 -1.51E-02
   174 OT LS       0.10E+00    4.5                    -7359.9489610052
   175 OT CG       0.10E+00   11.2     0.00014299     -7359.9489613859 -1.45E-02
   176 OT LS       0.11E+00    4.5                    -7359.9630132972
   177 OT CG       0.11E+00   11.1     0.00014077     -7359.9630136994 -1.41E-02
   178 OT LS       0.10E+00    4.5                    -7359.9765139251
   179 OT CG       0.10E+00   11.2     0.00013800     -7359.9765152551 -1.35E-02
   180 OT LS       0.10E+00    4.4                    -7359.9895273007
   181 OT CG       0.10E+00   12.0     0.00013524     -7359.9895273711 -1.30E-02
   182 OT LS       0.11E+00    4.6                    -7360.0020939322
   183 OT CG       0.11E+00   11.5     0.00013299     -7360.0020944409 -1.26E-02
   184 OT LS       0.10E+00    6.0                    -7360.0142215379
   185 OT CG       0.10E+00   11.7     0.00013098     -7360.0142215742 -1.21E-02
   186 OT LS       0.11E+00    4.5                    -7360.0260042431
   187 OT CG       0.11E+00   11.1     0.00012896     -7360.0260042491 -1.18E-02
   188 OT LS       0.10E+00    4.5                    -7360.0373886895
   189 OT CG       0.10E+00   11.2     0.00012688     -7360.0373888561 -1.14E-02
   190 OT LS       0.11E+00    4.5                    -7360.0484246672
   191 OT CG       0.11E+00   11.1     0.00012480     -7360.0484247046 -1.10E-02
   192 OT LS       0.11E+00    4.5                    -7360.0591488993
   193 OT CG       0.11E+00   11.2     0.00012337     -7360.0591491514 -1.07E-02
   194 OT LS       0.10E+00    4.5                    -7360.0695622832
   195 OT CG       0.10E+00   11.2     0.00012130     -7360.0695628093 -1.04E-02
   196 OT LS       0.10E+00    4.5                    -7360.0796516200
   197 OT CG       0.10E+00   11.1     0.00011925     -7360.0796516326 -1.01E-02
   198 OT LS       0.11E+00    4.4                    -7360.0894177942
   199 OT CG       0.11E+00   11.1     0.00011728     -7360.0894178364 -9.77E-03
   200 OT LS       0.11E+00    4.5                    -7360.0988577495
   201 OT CG       0.11E+00   11.1     0.00011553     -7360.0988577476 -9.44E-03
   202 OT LS       0.10E+00    4.5                    -7360.1080148299
   203 OT CG       0.10E+00   11.1     0.00011365     -7360.1080148348 -9.16E-03
   204 OT LS       0.10E+00    4.5                    -7360.1168791806
   205 OT CG       0.10E+00   11.4     0.00011194     -7360.1168791792 -8.86E-03
   206 OT LS       0.10E+00    4.5                    -7360.1254663857
   207 OT CG       0.10E+00   11.2     0.00011008     -7360.1254663893 -8.59E-03
   208 OT LS       0.11E+00    4.5                    -7360.1337996203
   209 OT CG       0.11E+00   11.2     0.00010847     -7360.1337997554 -8.33E-03
   210 OT LS       0.11E+00    4.4                    -7360.1418942597
   211 OT CG       0.11E+00   11.2     0.00010672     -7360.1418942550 -8.09E-03
   212 OT LS       0.10E+00    4.5                    -7360.1497027012
   213 OT CG       0.10E+00   11.2     0.00010502     -7360.1497028397 -7.81E-03
   214 OT LS       0.11E+00    4.5                    -7360.1572713363
   215 OT CG       0.11E+00   11.1     0.00010321     -7360.1572713403 -7.57E-03
   216 OT LS       0.10E+00    4.5                    -7360.1645667457
   217 OT CG       0.10E+00   11.1     0.00010178     -7360.1645667566 -7.30E-03
   218 OT LS       0.11E+00    4.5                    -7360.1716843283
   219 OT CG       0.11E+00   11.2     0.00010042     -7360.1716843810 -7.12E-03
   220 OT LS       0.10E+00    4.5                    -7360.1785752922
   221 OT CG       0.10E+00   11.3     0.00009897     -7360.1785755669 -6.89E-03
   222 OT LS       0.11E+00    4.5                    -7360.1853089572
   223 OT CG       0.11E+00   11.1     0.00009760     -7360.1853091976 -6.73E-03
   224 OT LS       0.10E+00    4.5                    -7360.1918306394
   225 OT CG       0.10E+00   11.1     0.00009637     -7360.1918307163 -6.52E-03
   226 OT LS       0.11E+00    4.5                    -7360.1982363400
   227 OT CG       0.11E+00   11.1     0.00009525     -7360.1982366817 -6.41E-03
   228 OT LS       0.10E+00    4.5                    -7360.2044618712
   229 OT CG       0.10E+00   11.2     0.00009390     -7360.2044621088 -6.23E-03
   230 OT LS       0.11E+00    4.5                    -7360.2105189760
   231 OT CG       0.11E+00   13.1     0.00009261     -7360.2105189791 -6.06E-03
   232 OT LS       0.11E+00    4.5                    -7360.2164180751
   233 OT CG       0.11E+00   11.2     0.00009138     -7360.2164181015 -5.90E-03
   234 OT LS       0.11E+00    4.5                    -7360.2221869792
   235 OT CG       0.11E+00   11.1     0.00009032     -7360.2221870736 -5.77E-03
   236 OT LS       0.11E+00    4.7                    -7360.2278023418
   237 OT CG       0.11E+00   11.2     0.00008924     -7360.2278024474 -5.62E-03
   238 OT LS       0.11E+00    4.5                    -7360.2332723314
   239 OT CG       0.11E+00   11.1     0.00008818     -7360.2332723536 -5.47E-03
   240 OT LS       0.11E+00    4.5                    -7360.2386213497
   241 OT CG       0.11E+00   11.1     0.00008723     -7360.2386213735 -5.35E-03
   242 OT LS       0.11E+00    4.5                    -7360.2438484387
   243 OT CG       0.11E+00   11.1     0.00008628     -7360.2438484473 -5.23E-03
   244 OT LS       0.11E+00    4.5                    -7360.2489743318
   245 OT CG       0.11E+00   11.1     0.00008517     -7360.2489743474 -5.13E-03
   246 OT LS       0.11E+00    4.5                    -7360.2539731164
   247 OT CG       0.11E+00   11.1     0.00008426     -7360.2539731153 -5.00E-03
   248 OT LS       0.10E+00    4.4                    -7360.2588381732
   249 OT CG       0.10E+00   11.1     0.00008318     -7360.2588383003 -4.87E-03
   250 OT LS       0.11E+00    4.4                    -7360.2635924198
   251 OT CG       0.11E+00   11.2     0.00008230     -7360.2635924581 -4.75E-03
   252 OT LS       0.11E+00    4.5                    -7360.2682420872
   253 OT CG       0.11E+00   11.2     0.00008143     -7360.2682420984 -4.65E-03
   254 OT LS       0.10E+00    4.5                    -7360.2727786821
   255 OT CG       0.10E+00   11.1     0.00008033     -7360.2727787350 -4.54E-03
   256 OT LS       0.11E+00    4.5                    -7360.2772178872
   257 OT CG       0.11E+00   12.3     0.00007942     -7360.2772180345 -4.44E-03
   258 OT LS       0.11E+00    4.5                    -7360.2815544223
   259 OT CG       0.11E+00   11.6     0.00007867     -7360.2815544232 -4.34E-03
   260 OT LS       0.11E+00    6.9                    -7360.2858118541
   261 OT CG       0.11E+00   11.3     0.00007779     -7360.2858118540 -4.26E-03
   262 OT LS       0.11E+00    4.5                    -7360.2899670570
   263 OT CG       0.11E+00   11.1     0.00007694     -7360.2899670704 -4.16E-03
   264 OT LS       0.11E+00    4.5                    -7360.2940407060
   265 OT CG       0.11E+00   11.2     0.00007610     -7360.2940407277 -4.07E-03
   266 OT LS       0.11E+00    4.4                    -7360.2980209756
   267 OT CG       0.11E+00   11.3     0.00007533     -7360.2980209814 -3.98E-03
   268 OT LS       0.11E+00    4.5                    -7360.3019383936
   269 OT CG       0.11E+00   11.1     0.00007458     -7360.3019384630 -3.92E-03
   270 OT LS       0.11E+00    4.5                    -7360.3057576940
   271 OT CG       0.11E+00   11.2     0.00007381     -7360.3057578237 -3.82E-03
   272 OT LS       0.11E+00    4.5                    -7360.3094958160
   273 OT CG       0.11E+00   11.1     0.00007301     -7360.3094958164 -3.74E-03
   274 OT LS       0.11E+00    4.5                    -7360.3131522828
   275 OT CG       0.11E+00   11.1     0.00007205     -7360.3131522829 -3.66E-03
   276 OT LS       0.11E+00    4.5                    -7360.3167388513
   277 OT CG       0.11E+00   11.2     0.00007146     -7360.3167390230 -3.59E-03
   278 OT LS       0.10E+00    4.5                    -7360.3202338875
   279 OT CG       0.10E+00   11.1     0.00007057     -7360.3202342200 -3.50E-03
   280 OT LS       0.11E+00    4.4                    -7360.3236553904
   281 OT CG       0.11E+00   11.1     0.00006990     -7360.3236554369 -3.42E-03
   282 OT LS       0.11E+00    4.6                    -7360.3270124092
   283 OT CG       0.11E+00   11.1     0.00006914     -7360.3270124095 -3.36E-03
   284 OT LS       0.11E+00    4.5                    -7360.3303022392
   285 OT CG       0.11E+00   11.2     0.00006854     -7360.3303022490 -3.29E-03
   286 OT LS       0.11E+00    4.5                    -7360.3335259269
   287 OT CG       0.11E+00   11.1     0.00006778     -7360.3335259575 -3.22E-03
   288 OT LS       0.10E+00    4.5                    -7360.3366732061
   289 OT CG       0.10E+00   11.1     0.00006705     -7360.3366732167 -3.15E-03
   290 OT LS       0.10E+00    4.5                    -7360.3397521229
   291 OT CG       0.10E+00   11.1     0.00006631     -7360.3397521234 -3.08E-03
   292 OT LS       0.10E+00    4.5                    -7360.3427593933
   293 OT CG       0.10E+00   11.2     0.00006551     -7360.3427593977 -3.01E-03
   294 OT LS       0.11E+00    4.5                    -7360.3457132877
   295 OT CG       0.11E+00   11.1     0.00006481     -7360.3457134060 -2.95E-03
   296 OT LS       0.11E+00    4.4                    -7360.3485978687
   297 OT CG       0.11E+00   11.2     0.00006419     -7360.3485978881 -2.88E-03
   298 OT LS       0.10E+00    4.5                    -7360.3514238732
   299 OT CG       0.10E+00   11.1     0.00006355     -7360.3514238764 -2.83E-03
   300 OT LS       0.11E+00    4.5                    -7360.3541974980
   301 OT CG       0.11E+00   11.1     0.00006296     -7360.3541975034 -2.77E-03
   302 OT LS       0.10E+00    4.4                    -7360.3569163577
   303 OT CG       0.10E+00   11.1     0.00006242     -7360.3569163627 -2.72E-03
   304 OT LS       0.10E+00    4.4                    -7360.3595810960
   305 OT CG       0.10E+00   11.2     0.00006163     -7360.3595811249 -2.66E-03
   306 OT LS       0.11E+00    4.5                    -7360.3621996430
   307 OT CG       0.11E+00   12.6     0.00006106     -7360.3621998176 -2.62E-03
   308 OT LS       0.11E+00    4.5                    -7360.3647598002
   309 OT CG       0.11E+00   11.2     0.00006050     -7360.3647598395 -2.56E-03
   310 OT LS       0.10E+00    4.5                    -7360.3672600915
   311 OT CG       0.10E+00   11.1     0.00005977     -7360.3672601630 -2.50E-03
   312 OT LS       0.10E+00    4.5                    -7360.3697097259
   313 OT CG       0.10E+00   11.3     0.00005909     -7360.3697097611 -2.45E-03
   314 OT LS       0.10E+00    4.5                    -7360.3721039819
   315 OT CG       0.10E+00   11.1     0.00005845     -7360.3721039819 -2.39E-03
   316 OT LS       0.11E+00    4.5                    -7360.3744493496
   317 OT CG       0.11E+00   11.2     0.00005784     -7360.3744493539 -2.35E-03
   318 OT LS       0.11E+00    4.5                    -7360.3767465743
   319 OT CG       0.11E+00   11.2     0.00005735     -7360.3767465742 -2.30E-03
   320 OT LS       0.10E+00    4.5                    -7360.3790002503
   321 OT CG       0.10E+00   11.1     0.00005676     -7360.3790002594 -2.25E-03
   322 OT LS       0.11E+00    4.5                    -7360.3812159885
   323 OT CG       0.11E+00   11.2     0.00005635     -7360.3812160191 -2.22E-03
   324 OT LS       0.10E+00    4.5                    -7360.3833897016
   325 OT CG       0.10E+00   11.1     0.00005584     -7360.3833897467 -2.17E-03
   326 OT LS       0.10E+00    4.5                    -7360.3855280427
   327 OT CG       0.10E+00   11.2     0.00005531     -7360.3855280478 -2.14E-03
   328 OT LS       0.11E+00    4.5                    -7360.3876310587
   329 OT CG       0.11E+00   11.2     0.00005485     -7360.3876310680 -2.10E-03
   330 OT LS       0.10E+00    4.4                    -7360.3896920897
   331 OT CG       0.10E+00   11.1     0.00005434     -7360.3896921119 -2.06E-03
   332 OT LS       0.10E+00    4.5                    -7360.3917172248
   333 OT CG       0.10E+00   12.5     0.00005389     -7360.3917172277 -2.03E-03
   334 OT LS       0.10E+00    4.7                    -7360.3937046986
   335 OT CG       0.10E+00   11.9     0.00005339     -7360.3937047075 -1.99E-03
   336 OT LS       0.10E+00    5.5                    -7360.3956576313
   337 OT CG       0.10E+00   11.2     0.00005294     -7360.3956576326 -1.95E-03
   338 OT LS       0.10E+00    4.4                    -7360.3975757748
   339 OT CG       0.10E+00   11.1     0.00005235     -7360.3975757770 -1.92E-03
   340 OT LS       0.11E+00    4.5                    -7360.3994602148
   341 OT CG       0.11E+00   11.1     0.00005196     -7360.3994602593 -1.88E-03
   342 OT LS       0.11E+00    4.5                    -7360.4013195752
   343 OT CG       0.11E+00   11.2     0.00005151     -7360.4013195796 -1.86E-03
   344 OT LS       0.11E+00    4.5                    -7360.4031462879
   345 OT CG       0.11E+00   11.1     0.00005122     -7360.4031462885 -1.83E-03
   346 OT LS       0.10E+00    4.4                    -7360.4049431907
   347 OT CG       0.10E+00   11.1     0.00005083     -7360.4049432392 -1.80E-03
   348 OT LS       0.10E+00    4.5                    -7360.4067141022
   349 OT CG       0.10E+00   11.1     0.00005048     -7360.4067141028 -1.77E-03
   350 OT LS       0.11E+00    4.5                    -7360.4084684394
   351 OT CG       0.11E+00   11.1     0.00005008     -7360.4084684753 -1.75E-03
   352 OT LS       0.11E+00    4.5                    -7360.4101962535
   353 OT CG       0.11E+00   11.1     0.00004979     -7360.4101962537 -1.73E-03
   354 OT LS       0.10E+00    4.5                    -7360.4118960592
   355 OT CG       0.10E+00   11.1     0.00004941     -7360.4118960966 -1.70E-03
   356 OT LS       0.11E+00    4.5                    -7360.4135705938
   357 OT CG       0.11E+00   11.1     0.00004912     -7360.4135705941 -1.67E-03
   358 OT LS       0.10E+00    4.5                    -7360.4152182633
   359 OT CG       0.10E+00   11.2     0.00004876     -7360.4152182952 -1.65E-03
   360 OT LS       0.10E+00    4.5                    -7360.4168416684
   361 OT CG       0.10E+00   11.1     0.00004846     -7360.4168416684 -1.62E-03
   362 OT LS       0.11E+00    4.5                    -7360.4184537195
   363 OT CG       0.11E+00   11.1     0.00004804     -7360.4184537633 -1.61E-03
   364 OT LS       0.11E+00    4.5                    -7360.4200407668
   365 OT CG       0.11E+00   11.1     0.00004775     -7360.4200407722 -1.59E-03
   366 OT LS       0.11E+00    4.5                    -7360.4216076180
   367 OT CG       0.11E+00   11.2     0.00004743     -7360.4216076189 -1.57E-03
   368 OT LS       0.11E+00    4.5                    -7360.4231512994
   369 OT CG       0.11E+00   11.1     0.00004713     -7360.4231513039 -1.54E-03
   370 OT LS       0.11E+00    4.5                    -7360.4246790910
   371 OT CG       0.11E+00   11.1     0.00004679     -7360.4246790974 -1.53E-03
   372 OT LS       0.10E+00    4.5                    -7360.4261801752
   373 OT CG       0.10E+00   11.2     0.00004640     -7360.4261801885 -1.50E-03
   374 OT LS       0.11E+00    4.5                    -7360.4276631649
   375 OT CG       0.11E+00   11.3     0.00004615     -7360.4276631970 -1.48E-03
   376 OT LS       0.10E+00    4.5                    -7360.4291220518
   377 OT CG       0.10E+00   11.1     0.00004574     -7360.4291220973 -1.46E-03
   378 OT LS       0.11E+00    4.5                    -7360.4305665001
   379 OT CG       0.11E+00   11.2     0.00004551     -7360.4305665822 -1.44E-03
   380 OT LS       0.10E+00    4.4                    -7360.4319821108
   381 OT CG       0.10E+00   11.1     0.00004507     -7360.4319822506 -1.42E-03
   382 OT LS       0.11E+00    4.4                    -7360.4333764690
   383 OT CG       0.11E+00   12.9     0.00004476     -7360.4333764914 -1.39E-03
   384 OT LS       0.11E+00    4.4                    -7360.4347516436
   385 OT CG       0.11E+00   11.2     0.00004442     -7360.4347516436 -1.38E-03
   386 OT LS       0.10E+00    4.4                    -7360.4361025129
   387 OT CG       0.10E+00   11.1     0.00004413     -7360.4361025201 -1.35E-03
   388 OT LS       0.10E+00    4.4                    -7360.4374319991
   389 OT CG       0.10E+00   11.1     0.00004379     -7360.4374320110 -1.33E-03
   390 OT LS       0.10E+00    4.6                    -7360.4387442193
   391 OT CG       0.10E+00   11.2     0.00004356     -7360.4387442271 -1.31E-03
   392 OT LS       0.10E+00    4.5                    -7360.4400429802
   393 OT CG       0.10E+00   11.1     0.00004320     -7360.4400429803 -1.30E-03
   394 OT LS       0.10E+00    4.5                    -7360.4413181680
   395 OT CG       0.10E+00   11.1     0.00004291     -7360.4413181732 -1.28E-03
   396 OT LS       0.10E+00    4.5                    -7360.4425805655
   397 OT CG       0.10E+00   11.2     0.00004252     -7360.4425805803 -1.26E-03
   398 OT LS       0.11E+00    4.5                    -7360.4438220767
   399 OT CG       0.11E+00   11.2     0.00004228     -7360.4438220808 -1.24E-03
   400 OT LS       0.11E+00    4.5                    -7360.4450492328
   401 OT CG       0.11E+00   11.1     0.00004193     -7360.4450492335 -1.23E-03
   402 OT LS       0.10E+00    4.5                    -7360.4462535285
   403 OT CG       0.10E+00   11.2     0.00004166     -7360.4462535333 -1.20E-03
   404 OT LS       0.11E+00    4.4                    -7360.4474445296
   405 OT CG       0.11E+00   11.3     0.00004130     -7360.4474445332 -1.19E-03
   406 OT LS       0.10E+00    4.5                    -7360.4486124931
   407 OT CG       0.10E+00   11.1     0.00004095     -7360.4486124985 -1.17E-03
   408 OT LS       0.11E+00    4.4                    -7360.4497647600
   409 OT CG       0.11E+00   12.4     0.00004065     -7360.4497647718 -1.15E-03
   410 OT LS       0.10E+00    4.8                    -7360.4508943636
   411 OT CG       0.10E+00   12.5     0.00004027     -7360.4508943896 -1.13E-03
   412 OT LS       0.11E+00    5.0                    -7360.4520089196
   413 OT CG       0.11E+00   11.2     0.00004002     -7360.4520089521 -1.11E-03
   414 OT LS       0.10E+00    4.5                    -7360.4531061458
   415 OT CG       0.10E+00   11.1     0.00003972     -7360.4531061598 -1.10E-03
   416 OT LS       0.11E+00    4.5                    -7360.4541913835
   417 OT CG       0.11E+00   11.1     0.00003951     -7360.4541914017 -1.09E-03
   418 OT LS       0.10E+00    4.5                    -7360.4552540186
   419 OT CG       0.10E+00   11.1     0.00003921     -7360.4552541335 -1.06E-03
   420 OT LS       0.10E+00    4.5                    -7360.4563035965
   421 OT CG       0.10E+00   11.3     0.00003889     -7360.4563036048 -1.05E-03
   422 OT LS       0.10E+00    4.5                    -7360.4573330970
   423 OT CG       0.10E+00   11.1     0.00003847     -7360.4573331068 -1.03E-03
   424 OT LS       0.10E+00    4.5                    -7360.4583471918
   425 OT CG       0.10E+00   11.1     0.00003817     -7360.4583472402 -1.01E-03
   426 OT LS       0.10E+00    4.5                    -7360.4593450010
   427 OT CG       0.10E+00   11.1     0.00003781     -7360.4593450014 -9.98E-04
   428 OT LS       0.11E+00    4.5                    -7360.4603273538
   429 OT CG       0.11E+00   11.1     0.00003759     -7360.4603273637 -9.82E-04
   430 OT LS       0.11E+00    4.5                    -7360.4612972052
   431 OT CG       0.11E+00   11.1     0.00003731     -7360.4612972059 -9.70E-04
   432 OT LS       0.11E+00    4.5                    -7360.4622525983
   433 OT CG       0.11E+00   11.1     0.00003713     -7360.4622525983 -9.55E-04
   434 OT LS       0.10E+00    4.5                    -7360.4631940790
   435 OT CG       0.10E+00   11.1     0.00003676     -7360.4631941054 -9.42E-04
   436 OT LS       0.11E+00    4.7                    -7360.4641215678
   437 OT CG       0.11E+00   11.1     0.00003647     -7360.4641215941 -9.27E-04
   438 OT LS       0.11E+00    4.5                    -7360.4650354621
   439 OT CG       0.11E+00   11.1     0.00003619     -7360.4650354627 -9.14E-04
   440 OT LS       0.10E+00    4.5                    -7360.4659314554
   441 OT CG       0.10E+00   11.1     0.00003592     -7360.4659314715 -8.96E-04
   442 OT LS       0.10E+00    4.5                    -7360.4668145409
   443 OT CG       0.10E+00   11.1     0.00003566     -7360.4668145409 -8.83E-04
   444 OT LS       0.10E+00    4.5                    -7360.4676824164
   445 OT CG       0.10E+00   11.1     0.00003543     -7360.4676824231 -8.68E-04
   446 OT LS       0.10E+00    4.5                    -7360.4685416648
   447 OT CG       0.10E+00   11.1     0.00003513     -7360.4685416728 -8.59E-04
   448 OT LS       0.11E+00    4.5                    -7360.4693892342
   449 OT CG       0.11E+00   11.1     0.00003495     -7360.4693892441 -8.48E-04
   450 OT LS       0.10E+00    4.5                    -7360.4702248862
   451 OT CG       0.10E+00   11.3     0.00003472     -7360.4702249004 -8.36E-04
   452 OT LS       0.10E+00    4.5                    -7360.4710482785
   453 OT CG       0.10E+00   11.1     0.00003450     -7360.4710482798 -8.23E-04
   454 OT LS       0.10E+00    4.5                    -7360.4718645631
   455 OT CG       0.10E+00   11.1     0.00003423     -7360.4718645755 -8.16E-04
   456 OT LS       0.11E+00    4.5                    -7360.4726691827
   457 OT CG       0.11E+00   11.1     0.00003400     -7360.4726691839 -8.05E-04
   458 OT LS       0.11E+00    4.5                    -7360.4734641998
   459 OT CG       0.11E+00   12.5     0.00003380     -7360.4734642011 -7.95E-04
   460 OT LS       0.11E+00    4.5                    -7360.4742483120
   461 OT CG       0.11E+00   11.2     0.00003355     -7360.4742483142 -7.84E-04
   462 OT LS       0.11E+00    4.4                    -7360.4750222243
   463 OT CG       0.11E+00   11.1     0.00003338     -7360.4750222261 -7.74E-04
   464 OT LS       0.10E+00    4.4                    -7360.4757846817
   465 OT CG       0.10E+00   11.1     0.00003318     -7360.4757846973 -7.62E-04
   466 OT LS       0.10E+00    4.5                    -7360.4765386632
   467 OT CG       0.10E+00   11.3     0.00003298     -7360.4765386638 -7.54E-04
   468 OT LS       0.10E+00    4.4                    -7360.4772796179
   469 OT CG       0.10E+00   11.1     0.00003278     -7360.4772796430 -7.41E-04
   470 OT LS       0.11E+00    4.4                    -7360.4780178969
   471 OT CG       0.11E+00   11.1     0.00003255     -7360.4780179508 -7.38E-04
   472 OT LS       0.11E+00    4.4                    -7360.4787470230
   473 OT CG       0.11E+00   11.1     0.00003235     -7360.4787470259 -7.29E-04
   474 OT LS       0.11E+00    4.5                    -7360.4794662122
   475 OT CG       0.11E+00   11.1     0.00003220     -7360.4794662135 -7.19E-04
   476 OT LS       0.10E+00    4.4                    -7360.4801747505
   477 OT CG       0.10E+00   11.1     0.00003190     -7360.4801747780 -7.09E-04
   478 OT LS       0.11E+00    4.4                    -7360.4808745723
   479 OT CG       0.11E+00   11.1     0.00003172     -7360.4808746048 -7.00E-04
   480 OT LS       0.11E+00    4.4                    -7360.4815655088
   481 OT CG       0.11E+00   11.1     0.00003149     -7360.4815655102 -6.91E-04
   482 OT LS       0.11E+00    4.5                    -7360.4822470705
   483 OT CG       0.11E+00   11.2     0.00003138     -7360.4822470706 -6.82E-04
   484 OT LS       0.10E+00    4.4                    -7360.4829208754
   485 OT CG       0.10E+00   12.5     0.00003117     -7360.4829208864 -6.74E-04
   486 OT LS       0.11E+00    4.8                    -7360.4835885043
   487 OT CG       0.11E+00   11.3     0.00003101     -7360.4835885165 -6.68E-04
   488 OT LS       0.11E+00    5.3                    -7360.4842487213
   489 OT CG       0.11E+00   11.5     0.00003079     -7360.4842487224 -6.60E-04
   490 OT LS       0.11E+00    4.4                    -7360.4848994731
   491 OT CG       0.11E+00   11.1     0.00003069     -7360.4848994731 -6.51E-04
   492 OT LS       0.10E+00    4.4                    -7360.4855426073
   493 OT CG       0.10E+00   11.2     0.00003045     -7360.4855426226 -6.43E-04
   494 OT LS       0.10E+00    4.5                    -7360.4861771137
   495 OT CG       0.10E+00   11.1     0.00003033     -7360.4861771161 -6.34E-04
   496 OT LS       0.10E+00    4.5                    -7360.4868079415
   497 OT CG       0.10E+00   11.3     0.00003015     -7360.4868079452 -6.31E-04
   498 OT LS       0.10E+00    4.5                    -7360.4874313477
   499 OT CG       0.10E+00   11.1     0.00002998     -7360.4874313477 -6.23E-04
   500 OT LS       0.11E+00    4.5                    -7360.4880496933

  Leaving inner SCF loop after reaching   500 steps.


  Electronic density on regular grids:      -3255.9999970950        0.0000029050
  Core density on regular grids:             3255.9999998008       -0.0000001992
  Total charge density on r-space grids:        0.0000027058
  Total charge density g-space grids:           0.0000027058

  Overlap energy of the core charge distribution:               0.00000865568029
  Self energy of the core charge distribution:             -18940.21307405635889
  Core Hamiltonian energy:                                   5372.25927903701813
  Hartree energy:                                            7924.25449732654488
  Exchange-correlation energy:                              -1714.68465927790953
  Dispersion energy:                                           -2.10410137828159

  Total energy:                                             -7360.48804969330740

  outer SCF iter =    1 RMS gradient =   0.30E-04 energy =      -7360.4880496933

  ----------------------------------- OT ---------------------------------------
  Minimizer      : CG                  : conjugate gradient
  Preconditioner : FULL_ALL            : diagonalization, state selective
  Precond_solver : DEFAULT
  Line search    : 2PNT                : 2 energies, one gradient
  stepsize       :    0.15000000                  energy_gap     :    0.00100000
  eps_taylor     :   0.10000E-15                  max_taylor     :             4
  ----------------------------------- OT ---------------------------------------

  Step     Update method      Time    Convergence         Total energy    Change
  ------------------------------------------------------------------------------
     1 OT CG       0.15E+00   46.3     0.00022130     -7360.4880496976 -6.18E-04
     2 OT LS       0.25E+00    4.1                    -7360.5551728347
     3 OT CG       0.25E+00   10.8     0.00001084     -7360.5677920310 -7.97E-02
     4 OT LS       0.85E-01    4.1                    -7360.5676165570
     5 OT CG       0.85E-01   10.8     0.00000216     -7360.5678574926 -6.55E-05
     6 OT LS       0.96E-01    4.1                    -7360.5678603983
     7 OT CG       0.96E-01   10.8     0.00000109     -7360.5678604359 -2.94E-06
     8 OT LS       0.89E-01    4.1                    -7360.5678611196
     9 OT CG       0.89E-01   11.0     0.00000044     -7360.5678611246 -6.89E-07

  *** SCF run converged in     9 steps ***


  Electronic density on regular grids:      -3255.9999970966        0.0000029034
  Core density on regular grids:             3255.9999998008       -0.0000001992
  Total charge density on r-space grids:        0.0000027042
  Total charge density g-space grids:           0.0000027042

  Overlap energy of the core charge distribution:               0.00000865568029
  Self energy of the core charge distribution:             -18940.21307405635889
  Core Hamiltonian energy:                                   5372.04680402902704
  Hartree energy:                                            7924.37166357840033
  Exchange-correlation energy:                              -1714.66916195311001
  Dispersion energy:                                           -2.10410137828159

  Total energy:                                             -7360.56786112464397

  outer SCF iter =    2 RMS gradient =   0.44E-06 energy =      -7360.5678611246
  outer SCF loop converged in   2 iterations or  509 steps


 ENERGY| Total FORCE_EVAL ( QS ) energy [a.u.]:            -7360.567861215380617

 ATOMIC FORCES in [a.u.]

 # Atom   Kind   Element          X              Y              Z
      1      1      Ti          0.00000000     0.00000000     0.00000000
      2      2      Si          0.00000000     0.00000000     0.00000000
      3      2      Si          0.00000000     0.00000000     0.00000000
      4      2      Si          0.00000000     0.00000000     0.00000000
      5      2      Si          0.00000000     0.00000000     0.00000000
      6      2      Si          0.00000000     0.00000000     0.00000000
      7      2      Si          0.00000000     0.00000000     0.00000000
      8      2      Si          0.00000000     0.00000000     0.00000000
      9      2      Si          0.00000000     0.00000000     0.00000000
     10      2      Si          0.00000000     0.00000000     0.00000000
     11      2      Si          0.00000000     0.00000000     0.00000000
     12      2      Si          0.00000000     0.00000000     0.00000000
     13      2      Si          0.00000000     0.00000000     0.00000000
     14      2      Si          0.00000000     0.00000000     0.00000000
     15      2      Si          0.00000000     0.00000000     0.00000000
     16      2      Si          0.00000000     0.00000000     0.00000000
     17      2      Si          0.00000000     0.00000000     0.00000000
     18      2      Si          0.00000000     0.00000000     0.00000000
     19      2      Si          0.00000000     0.00000000     0.00000000
     20      2      Si          0.00000000     0.00000000     0.00000000
     21      2      Si          0.00000000     0.00000000     0.00000000
     22      2      Si          0.00000000     0.00000000     0.00000000
     23      2      Si          0.00000000     0.00000000     0.00000000
     24      2      Si          0.00000000     0.00000000     0.00000000
     25      2      Si          0.00000000     0.00000000     0.00000000
     26      2      Si          0.00000000     0.00000000     0.00000000
     27      2      Si          0.00000000     0.00000000     0.00000000
     28      2      Si          0.00000000     0.00000000     0.00000000
     29      2      Si          0.00000000     0.00000000     0.00000000
     30      2      Si          0.00000000     0.00000000     0.00000000
     31      2      Si          0.00000000     0.00000000     0.00000000
     32      2      Si          0.00000000     0.00000000     0.00000000
     33      2      Si          0.00000000     0.00000000     0.00000000
     34      2      Si          0.00000000     0.00000000     0.00000000
     35      2      Si          0.00000000     0.00000000     0.00000000
     36      2      Si          0.00000000     0.00000000     0.00000000
     37      2      Si          0.00000000     0.00000000     0.00000000
     38      2      Si          0.00000000     0.00000000     0.00000000
     39      2      Si          0.00000000     0.00000000     0.00000000
     40      2      Si          0.00000000     0.00000000     0.00000000
     41      2      Si          0.00000000     0.00000000     0.00000000
     42      2      Si          0.00000000     0.00000000     0.00000000
     43      2      Si          0.00000000     0.00000000     0.00000000
     44      2      Si          0.00000000     0.00000000     0.00000000
     45      2      Si          0.00000000     0.00000000     0.00000000
     46      2      Si          0.00000000     0.00000000     0.00000000
     47      2      Si          0.00000000     0.00000000     0.00000000
     48      2      Si          0.00000000     0.00000000     0.00000000
     49      2      Si          0.00000000     0.00000000     0.00000000
     50      2      Si          0.00000000     0.00000000     0.00000000
     51      2      Si          0.00000000     0.00000000     0.00000000
     52      2      Si          0.00000000     0.00000000     0.00000000
     53      2      Si          0.00000000     0.00000000     0.00000000
     54      2      Si          0.00000000     0.00000000     0.00000000
     55      2      Si          0.00000000     0.00000000     0.00000000
     56      2      Si          0.00000000     0.00000000     0.00000000
     57      2      Si          0.00000000     0.00000000     0.00000000
     58      2      Si          0.00000000     0.00000000     0.00000000
     59      2      Si          0.00000000     0.00000000     0.00000000
     60      2      Si          0.00000000     0.00000000     0.00000000
     61      2      Si          0.00000000     0.00000000     0.00000000
     62      2      Si          0.00000000     0.00000000     0.00000000
     63      2      Si          0.00000000     0.00000000     0.00000000
     64      2      Si          0.00000000     0.00000000     0.00000000
     65      2      Si          0.00000000     0.00000000     0.00000000
     66      2      Si          0.00000000     0.00000000     0.00000000
     67      2      Si          0.00000000     0.00000000     0.00000000
     68      2      Si          0.00000000     0.00000000     0.00000000
     69      2      Si          0.00000000     0.00000000     0.00000000
     70      2      Si          0.00000000     0.00000000     0.00000000
     71      2      Si          0.00000000     0.00000000     0.00000000
     72      2      Si          0.00000000     0.00000000     0.00000000
     73      2      Si          0.00000000     0.00000000     0.00000000
     74      2      Si          0.00000000     0.00000000     0.00000000
     75      2      Si          0.00000000     0.00000000     0.00000000
     76      2      Si          0.00000000     0.00000000     0.00000000
     77      2      Si          0.00000000     0.00000000     0.00000000
     78      2      Si          0.00000000     0.00000000     0.00000000
     79      2      Si          0.00000000     0.00000000     0.00000000
     80      2      Si          0.00000000     0.00000000     0.00000000
     81      2      Si          0.00000000     0.00000000     0.00000000
     82      2      Si          0.00000000     0.00000000     0.00000000
     83      2      Si          0.00000000     0.00000000     0.00000000
     84      2      Si          0.00000000     0.00000000     0.00000000
     85      2      Si          0.00000000     0.00000000     0.00000000
     86      2      Si          0.00000000     0.00000000     0.00000000
     87      2      Si          0.00000000     0.00000000     0.00000000
     88      2      Si          0.00000000     0.00000000     0.00000000
     89      2      Si          0.00000000     0.00000000     0.00000000
     90      2      Si          0.00000000     0.00000000     0.00000000
     91      2      Si          0.00000000     0.00000000     0.00000000
     92      2      Si          0.00000000     0.00000000     0.00000000
     93      2      Si          0.00000000     0.00000000     0.00000000
     94      2      Si          0.00000000     0.00000000     0.00000000
     95      2      Si          0.00000000     0.00000000     0.00000000
     96      2      Si          0.00000000     0.00000000     0.00000000
     97      2      Si          0.00000000     0.00000000     0.00000000
     98      2      Si          0.00000000     0.00000000     0.00000000
     99      2      Si          0.00000000     0.00000000     0.00000000
    100      2      Si          0.00000000     0.00000000     0.00000000
    101      2      Si          0.00000000     0.00000000     0.00000000
    102      2      Si          0.00000000     0.00000000     0.00000000
    103      2      Si          0.00000000     0.00000000     0.00000000
    104      2      Si          0.00000000     0.00000000     0.00000000
    105      2      Si          0.00000000     0.00000000     0.00000000
    106      2      Si          0.00000000     0.00000000     0.00000000
    107      2      Si          0.00000000     0.00000000     0.00000000
    108      2      Si          0.00000000     0.00000000     0.00000000
    109      2      Si          0.00000000     0.00000000     0.00000000
    110      2      Si          0.00000000     0.00000000     0.00000000
    111      2      Si          0.00000000     0.00000000     0.00000000
    112      2      Si          0.00000000     0.00000000     0.00000000
    113      2      Si          0.00000000     0.00000000     0.00000000
    114      2      Si          0.00000000     0.00000000     0.00000000
    115      2      Si          0.00000000     0.00000000     0.00000000
    116      2      Si          0.00000000     0.00000000     0.00000000
    117      2      Si          0.00000000     0.00000000     0.00000000
    118      2      Si          0.00000000     0.00000000     0.00000000
    119      2      Si          0.00000000     0.00000000     0.00000000
    120      2      Si          0.00000000     0.00000000     0.00000000
    121      2      Si          0.00000000     0.00000000     0.00000000
    122      2      Si          0.00000000     0.00000000     0.00000000
    123      2      Si          0.00000000     0.00000000     0.00000000
    124      2      Si          0.00000000     0.00000000     0.00000000
    125      2      Si          0.00000000     0.00000000     0.00000000
    126      2      Si          0.00000000     0.00000000     0.00000000
    127      2      Si          0.00000000     0.00000000     0.00000000
    128      2      Si          0.00000000     0.00000000     0.00000000
    129      2      Si          0.00000000     0.00000000     0.00000000
    130      2      Si          0.00000000     0.00000000     0.00000000
    131      2      Si          0.00000000     0.00000000     0.00000000
    132      2      Si          0.00000000     0.00000000     0.00000000
    133      2      Si          0.00000000     0.00000000     0.00000000
    134      2      Si          0.00000000     0.00000000     0.00000000
    135      2      Si          0.00000000     0.00000000     0.00000000
    136      2      Si          0.00000000     0.00000000     0.00000000
    137      2      Si          0.00000000     0.00000000     0.00000000
    138      2      Si          0.00000000     0.00000000     0.00000000
    139      2      Si          0.00000000     0.00000000     0.00000000
    140      2      Si          0.00000000     0.00000000     0.00000000
    141      2      Si          0.00000000     0.00000000     0.00000000
    142      2      Si          0.00000000     0.00000000     0.00000000
    143      2      Si          0.00000000     0.00000000     0.00000000
    144      2      Si          0.00000000     0.00000000     0.00000000
    145      2      Si          0.00000000     0.00000000     0.00000000
    146      2      Si          0.00000000     0.00000000     0.00000000
    147      2      Si          0.00000000     0.00000000     0.00000000
    148      2      Si          0.00000000     0.00000000     0.00000000
    149      2      Si          0.00000000     0.00000000     0.00000000
    150      2      Si          0.00000000     0.00000000     0.00000000
    151      2      Si          0.00000000     0.00000000     0.00000000
    152      2      Si          0.00000000     0.00000000     0.00000000
    153      2      Si          0.00000000     0.00000000     0.00000000
    154      2      Si          0.00000000     0.00000000     0.00000000
    155      2      Si          0.00000000     0.00000000     0.00000000
    156      2      Si          0.00000000     0.00000000     0.00000000
    157      2      Si          0.00000000     0.00000000     0.00000000
    158      2      Si          0.00000000     0.00000000     0.00000000
    159      2      Si          0.00000000     0.00000000     0.00000000
    160      2      Si          0.00000000     0.00000000     0.00000000
    161      2      Si          0.00000000     0.00000000     0.00000000
    162      2      Si          0.00000000     0.00000000     0.00000000
    163      2      Si          0.00000000     0.00000000     0.00000000
    164      2      Si          0.00000000     0.00000000     0.00000000
    165      2      Si          0.00000000     0.00000000     0.00000000
    166      2      Si          0.00000000     0.00000000     0.00000000
    167      2      Si          0.00000000     0.00000000     0.00000000
    168      2      Si          0.00000000     0.00000000     0.00000000
    169      2      Si          0.00000000     0.00000000     0.00000000
    170      2      Si          0.00000000     0.00000000     0.00000000
    171      2      Si          0.00000000     0.00000000     0.00000000
    172      2      Si          0.00000000     0.00000000     0.00000000
    173      2      Si          0.00000000     0.00000000     0.00000000
    174      2      Si          0.00000000     0.00000000     0.00000000
    175      2      Si          0.00000000     0.00000000     0.00000000
    176      2      Si          0.00000000     0.00000000     0.00000000
    177      2      Si          0.00000000     0.00000000     0.00000000
    178      2      Si          0.00000000     0.00000000     0.00000000
    179      2      Si          0.00000000     0.00000000     0.00000000
    180      2      Si          0.00000000     0.00000000     0.00000000
    181      2      Si          0.00000000     0.00000000     0.00000000
    182      2      Si          0.00000000     0.00000000     0.00000000
    183      2      Si          0.00000000     0.00000000     0.00000000
    184      2      Si          0.00000000     0.00000000     0.00000000
    185      2      Si          0.00000000     0.00000000     0.00000000
    186      2      Si          0.00000000     0.00000000     0.00000000
    187      2      Si          0.00000000     0.00000000     0.00000000
    188      2      Si          0.00000000     0.00000000     0.00000000
    189      2      Si          0.00000000     0.00000000     0.00000000
    190      2      Si          0.00000000     0.00000000     0.00000000
    191      2      Si          0.00000000     0.00000000     0.00000000
    192      3      O           0.00000000     0.00000000     0.00000000
    193      3      O           0.00000000     0.00000000     0.00000000
    194      3      O           0.00000000     0.00000000     0.00000000
    195      3      O           0.00000000     0.00000000     0.00000000
    196      3      O           0.00000000     0.00000000     0.00000000
    197      3      O           0.00000000     0.00000000     0.00000000
    198      3      O           0.00000000     0.00000000     0.00000000
    199      3      O           0.00000000     0.00000000     0.00000000
    200      3      O           0.00000000     0.00000000     0.00000000
    201      3      O           0.00000000     0.00000000     0.00000000
    202      3      O           0.00000000     0.00000000     0.00000000
    203      3      O           0.00000000     0.00000000     0.00000000
    204      3      O           0.00000000     0.00000000     0.00000000
    205      3      O           0.00000000     0.00000000     0.00000000
    206      3      O           0.00000000     0.00000000     0.00000000
    207      3      O           0.00000000     0.00000000     0.00000000
    208      3      O           0.00000000     0.00000000     0.00000000
    209      3      O           0.00000000     0.00000000     0.00000000
    210      3      O           0.00000000     0.00000000     0.00000000
    211      3      O           0.00000000     0.00000000     0.00000000
    212      3      O           0.00000000     0.00000000     0.00000000
    213      3      O           0.00000000     0.00000000     0.00000000
    214      3      O           0.00000000     0.00000000     0.00000000
    215      3      O           0.00000000     0.00000000     0.00000000
    216      3      O           0.00000000     0.00000000     0.00000000
    217      3      O           0.00000000     0.00000000     0.00000000
    218      3      O           0.00000000     0.00000000     0.00000000
    219      3      O           0.00000000     0.00000000     0.00000000
    220      3      O           0.00000000     0.00000000     0.00000000
    221      3      O           0.00000000     0.00000000     0.00000000
    222      3      O           0.00000000     0.00000000     0.00000000
    223      3      O           0.00000000     0.00000000     0.00000000
    224      3      O           0.00000000     0.00000000     0.00000000
    225      3      O           0.00000000     0.00000000     0.00000000
    226      3      O           0.00000000     0.00000000     0.00000000
    227      3      O           0.00000000     0.00000000     0.00000000
    228      3      O           0.00000000     0.00000000     0.00000000
    229      3      O           0.00000000     0.00000000     0.00000000
    230      3      O           0.00000000     0.00000000     0.00000000
    231      3      O           0.00000000     0.00000000     0.00000000
    232      3      O           0.00000000     0.00000000     0.00000000
    233      3      O           0.00000000     0.00000000     0.00000000
    234      3      O           0.00000000     0.00000000     0.00000000
    235      3      O           0.00000000     0.00000000     0.00000000
    236      3      O           0.00000000     0.00000000     0.00000000
    237      3      O           0.00000000     0.00000000     0.00000000
    238      3      O           0.00000000     0.00000000     0.00000000
    239      3      O           0.00000000     0.00000000     0.00000000
    240      3      O           0.00000000     0.00000000     0.00000000
    241      3      O           0.00000000     0.00000000     0.00000000
    242      3      O           0.00000000     0.00000000     0.00000000
    243      3      O           0.00000000     0.00000000     0.00000000
    244      3      O           0.00000000     0.00000000     0.00000000
    245      3      O           0.00000000     0.00000000     0.00000000
    246      3      O           0.00000000     0.00000000     0.00000000
    247      3      O           0.00000000     0.00000000     0.00000000
    248      3      O           0.00000000     0.00000000     0.00000000
    249      3      O           0.00000000     0.00000000     0.00000000
    250      3      O           0.00000000     0.00000000     0.00000000
    251      3      O           0.00000000     0.00000000     0.00000000
    252      3      O           0.00000000     0.00000000     0.00000000
    253      3      O           0.00000000     0.00000000     0.00000000
    254      3      O           0.00000000     0.00000000     0.00000000
    255      3      O           0.00000000     0.00000000     0.00000000
    256      3      O           0.00000000     0.00000000     0.00000000
    257      3      O           0.00000000     0.00000000     0.00000000
    258      3      O           0.00000000     0.00000000     0.00000000
    259      3      O           0.00000000     0.00000000     0.00000000
    260      3      O           0.00000000     0.00000000     0.00000000
    261      3      O           0.00000000     0.00000000     0.00000000
    262      3      O           0.00000000     0.00000000     0.00000000
    263      3      O           0.00000000     0.00000000     0.00000000
    264      3      O           0.00000000     0.00000000     0.00000000
    265      3      O           0.00000000     0.00000000     0.00000000
    266      3      O           0.00000000     0.00000000     0.00000000
    267      3      O           0.00000000     0.00000000     0.00000000
    268      3      O           0.00000000     0.00000000     0.00000000
    269      3      O           0.00000000     0.00000000     0.00000000
    270      3      O           0.00000000     0.00000000     0.00000000
    271      3      O           0.00000000     0.00000000     0.00000000
    272      3      O           0.00000000     0.00000000     0.00000000
    273      3      O           0.00000000     0.00000000     0.00000000
    274      3      O           0.00000000     0.00000000     0.00000000
    275      3      O           0.00000000     0.00000000     0.00000000
    276      3      O           0.00000000     0.00000000     0.00000000
    277      3      O           0.00000000     0.00000000     0.00000000
    278      3      O           0.00000000     0.00000000     0.00000000
    279      3      O           0.00000000     0.00000000     0.00000000
    280      3      O           0.00000000     0.00000000     0.00000000
    281      3      O           0.00000000     0.00000000     0.00000000
    282      3      O           0.00000000     0.00000000     0.00000000
    283      3      O           0.00000000     0.00000000     0.00000000
    284      3      O           0.00000000     0.00000000     0.00000000
    285      3      O           0.00000000     0.00000000     0.00000000
    286      3      O           0.00000000     0.00000000     0.00000000
    287      3      O           0.00000000     0.00000000     0.00000000
    288      3      O           0.00000000     0.00000000     0.00000000
    289      3      O           0.00000000     0.00000000     0.00000000
    290      3      O           0.00000000     0.00000000     0.00000000
    291      3      O           0.00000000     0.00000000     0.00000000
    292      3      O           0.00000000     0.00000000     0.00000000
    293      3      O           0.00000000     0.00000000     0.00000000
    294      3      O           0.00000000     0.00000000     0.00000000
    295      3      O           0.00000000     0.00000000     0.00000000
    296      3      O           0.00000000     0.00000000     0.00000000
    297      3      O           0.00000000     0.00000000     0.00000000
    298      3      O           0.00000000     0.00000000     0.00000000
    299      3      O           0.00000000     0.00000000     0.00000000
    300      3      O           0.00000000     0.00000000     0.00000000
    301      3      O           0.00000000     0.00000000     0.00000000
    302      3      O           0.00000000     0.00000000     0.00000000
    303      3      O           0.00000000     0.00000000     0.00000000
    304      3      O           0.00000000     0.00000000     0.00000000
    305      3      O           0.00000000     0.00000000     0.00000000
    306      3      O           0.00000000     0.00000000     0.00000000
    307      3      O           0.00000000     0.00000000     0.00000000
    308      3      O           0.00000000     0.00000000     0.00000000
    309      3      O           0.00000000     0.00000000     0.00000000
    310      3      O           0.00000000     0.00000000     0.00000000
    311      3      O           0.00000000     0.00000000     0.00000000
    312      3      O           0.00000000     0.00000000     0.00000000
    313      3      O           0.00000000     0.00000000     0.00000000
    314      3      O           0.00000000     0.00000000     0.00000000
    315      3      O           0.00000000     0.00000000     0.00000000
    316      3      O           0.00000000     0.00000000     0.00000000
    317      3      O           0.00000000     0.00000000     0.00000000
    318      3      O           0.00000000     0.00000000     0.00000000
    319      3      O           0.00000000     0.00000000     0.00000000
    320      3      O           0.00000000     0.00000000     0.00000000
    321      3      O           0.00000000     0.00000000     0.00000000
    322      3      O           0.00000000     0.00000000     0.00000000
    323      3      O           0.00000000     0.00000000     0.00000000
    324      3      O           0.00000000     0.00000000     0.00000000
    325      3      O           0.00000000     0.00000000     0.00000000
    326      3      O           0.00000000     0.00000000     0.00000000
    327      3      O           0.00000000     0.00000000     0.00000000
    328      3      O           0.00000000     0.00000000     0.00000000
    329      3      O           0.00000000     0.00000000     0.00000000
    330      3      O           0.00000000     0.00000000     0.00000000
    331      3      O           0.00000000     0.00000000     0.00000000
    332      3      O           0.00000000     0.00000000     0.00000000
    333      3      O           0.00000000     0.00000000     0.00000000
    334      3      O           0.00000000     0.00000000     0.00000000
    335      3      O           0.00000000     0.00000000     0.00000000
    336      3      O           0.00000000     0.00000000     0.00000000
    337      3      O           0.00000000     0.00000000     0.00000000
    338      3      O           0.00000000     0.00000000     0.00000000
    339      3      O           0.00000000     0.00000000     0.00000000
    340      3      O           0.00000000     0.00000000     0.00000000
    341      3      O           0.00000000     0.00000000     0.00000000
    342      3      O           0.00000000     0.00000000     0.00000000
    343      3      O           0.00000000     0.00000000     0.00000000
    344      3      O           0.00000000     0.00000000     0.00000000
    345      3      O           0.00000000     0.00000000     0.00000000
    346      3      O           0.00000000     0.00000000     0.00000000
    347      3      O           0.00000000     0.00000000     0.00000000
    348      3      O           0.00000000     0.00000000     0.00000000
    349      3      O           0.00000000     0.00000000     0.00000000
    350      3      O           0.00000000     0.00000000     0.00000000
    351      3      O           0.00000000     0.00000000     0.00000000
    352      3      O           0.00000000     0.00000000     0.00000000
    353      3      O           0.00000000     0.00000000     0.00000000
    354      3      O           0.00000000     0.00000000     0.00000000
    355      3      O           0.00000000     0.00000000     0.00000000
    356      3      O           0.00000000     0.00000000     0.00000000
    357      3      O           0.00000000     0.00000000     0.00000000
    358      3      O           0.00000000     0.00000000     0.00000000
    359      3      O           0.00000000     0.00000000     0.00000000
    360      3      O           0.00000000     0.00000000     0.00000000
    361      3      O           0.00000000     0.00000000     0.00000000
    362      3      O           0.00000000     0.00000000     0.00000000
    363      3      O           0.00000000     0.00000000     0.00000000
    364      3      O           0.00000000     0.00000000     0.00000000
    365      3      O           0.00000000     0.00000000     0.00000000
    366      3      O           0.00000000     0.00000000     0.00000000
[...]
 flops   412 x   256 x   670        4316293939200       0.0%    100.0%      0.0%
 flops    13 x    32 x     5        4522613056000       0.0%    100.0%      0.0%
 flops     5 x    32 x    13        4522613056000       0.0%    100.0%      0.0%
 flops   416 x   256 x   128        4634487816192       0.0%    100.0%      0.0%
 flops   416 x   256 x   657        5128365146112       0.0%    100.0%      0.0%
 flops    13 x    13 x   160        5283031503360       0.0%    100.0%      0.0%
 flops  2005 x   256 x   160        5426149785600       0.0%    100.0%      0.0%
 flops  2007 x   256 x   657        5541407023104       0.0%    100.0%      0.0%
 flops  2010 x   256 x   657        5549690142720       0.0%    100.0%      0.0%
 flops   416 x   288 x   670        6537299558400       0.0%    100.0%      0.0%
 flops  2005 x   284 x   670        6958767936000       0.0%    100.0%      0.0%
 flops  2007 x   288 x   670        7063817932800       0.0%    100.0%      0.0%
 flops  2010 x   288 x   670        7074376704000       0.0%    100.0%      0.0%
 flops  2005 x   284 x   128        7223561902080       0.0%    100.0%      0.0%
 flops  2007 x   288 x   128        7332609245184       0.0%    100.0%      0.0%
 flops  2010 x   288 x   128        7343569797120       0.0%    100.0%      0.0%
 flops  2005 x   288 x   657        8303827415040       0.0%    100.0%      0.0%
 flops   416 x   256 x   670        8716399411200       0.0%    100.0%      0.0%
 flops  2007 x   256 x   670        9418423910400       0.0%    100.0%      0.0%
 flops  2010 x   256 x   670        9432502272000       0.0%    100.0%      0.0%
 flops  2007 x   256 x   128        9776812326912       0.0%    100.0%      0.0%
 flops  2010 x   256 x   128        9791426396160       0.0%    100.0%      0.0%
 flops  2005 x   256 x   657       11071769886720       0.0%    100.0%      0.0%
 flops  2005 x   288 x   670       14113557504000       0.0%    100.0%      0.0%
 flops  2005 x   288 x   128       14650604421120       0.0%    100.0%      0.0%
 flops  2005 x   256 x   670       18818076672000       0.0%    100.0%      0.0%
 flops    13 x    13 x   128       19018913412096       0.0%    100.0%      0.0%
 flops  2005 x   256 x   128       19534139228160       0.0%    100.0%      0.0%
 flops    13 x    32 x    13      103395690444800       0.0%    100.0%      0.0%
 flops inhomo. stacks              71784497807616     100.0%      0.0%      0.0%
 flops total                       569.001699E+12      12.6%     87.4%      0.0%
 flops max/rank                     25.239927E+12      12.7%     87.3%      0.0%
 matmuls inhomo. stacks                    212256     100.0%      0.0%      0.0%
 matmuls total                        12962981508       0.0%    100.0%      0.0%
 number of processed stacks              18207371       1.2%     98.8%      0.0%
 average stack size                                     1.0     720.3       0.0
 marketing flops                   962.402917E+12
 -------------------------------------------------------------------------------
 # multiplications                          11502
 max memory usage/rank             972.550144E+06
 # max total images/rank                        3
 # max 3D layers                                1
 # MPI messages exchanged                 5244912
 MPI messages size (bytes):
  total size                         9.190363E+12
  min size                           0.000000E+00
  max size                          11.111280E+06
  average size                       1.752244E+06
 MPI breakdown and total messages size (bytes):
             size <=      128               31164                        0
       128 < size <=     8192                   0                        0
      8192 < size <=    32768                1323                 43352064
     32768 < size <=   131072                 441                 17781120
    131072 < size <=  4194304             4993104            6839699039168
   4194304 < size <= 16777216              218880            2350505953920
  16777216 < size                               0                        0
 -------------------------------------------------------------------------------

 *** WARNING in dbcsr_mm.F:294 :: Using a non-square number of MPI ranks ***
 *** might lead to poor performance. Used ranks: 24 Suggested: 25 49     ***

 -------------------------------------------------------------------------------
 -                                                                             -
 -                      DBCSR MESSAGE PASSING PERFORMANCE                      -
 -                                                                             -
 -------------------------------------------------------------------------------
 ROUTINE             CALLS      AVE VOLUME [Bytes]
 MP_Bcast              160                     12.
 MP_Allreduce        58165                    120.
 MP_Alltoall         52101                 771960.
 MP_ISend           530020                 789979.
 MP_IRecv           521386                 795932.
 -------------------------------------------------------------------------------

 -------------------------------------------------------------------------------
 -                                                                             -
 -                                GRID STATISTICS                              -
 -                                                                             -
 -------------------------------------------------------------------------------
 LP    KERNEL             BACKEND                              COUNT     PERCENT
 4     collocate ortho    REF                              234614968      52.47%
 4     integrate ortho    REF                              117307484      26.23%
 3     collocate ortho    REF                               41220236       9.22%
 3     integrate ortho    REF                               20610118       4.61%
 7     integrate ortho    REF                               13546548       3.03%
 2     collocate ortho    REF                                8809176       1.97%
 2     integrate ortho    REF                                4404588       0.99%
 6     integrate ortho    REF                                2394930       0.54%
 5     collocate ortho    REF                                1439152       0.32%
 5     integrate ortho    REF                                1228614       0.27%
 0     collocate general  REF                                 744192       0.17%
 3     integrate general  REF                                 728688       0.16%
 8     integrate ortho    REF                                  83096       0.02%
 6     collocate ortho    REF                                  29304       0.01%
 9     integrate ortho    REF                                   1692       0.00%
 -------------------------------------------------------------------------------

 MEMORY| Estimated peak process memory [MiB]                                 928

 -------------------------------------------------------------------------------
 -                                                                             -
 -                         MESSAGE PASSING PERFORMANCE                         -
 -                                                                             -
 -------------------------------------------------------------------------------

 ROUTINE             CALLS      AVE VOLUME [Bytes]
 MP_Group                5
 MP_Bcast            35092                 241038.
 MP_Allreduce        93740                   1233.
 MP_Sync               699
 MP_Alltoall         13994               33888810.
 MP_SendRecv          4324                  15928.
 MP_ISendRecv        87492                 127093.
 MP_Wait            172857
 MP_ISend            76204                 803615.
 MP_IRecv            76204                 803946.
 MP_Recv              6172                1381089.
 -------------------------------------------------------------------------------


 -------------------------------------------------------------------------------
 -                                                                             -
 -                           R E F E R E N C E S                               -
 -                                                                             -
 -------------------------------------------------------------------------------
 
 CP2K version 9.1, the CP2K developers group (2021).
 CP2K is freely available from https://www.cp2k.org/ .

 Kuehne,Thomas D.; Iannuzzi,Marcella; Del Ben,Mauro;
 Rybkin,Vladimir V.; Seewald,Patrick; Stein,Frederick; Laino,Teodoro;
 Khaliullin,Rustam Z.; Schuett,Ole; Schiffmann,Florian; Golze,Dorothea;
 Wilhelm,Jan; Chulkov,Sergey; Bani-Hashemian,Mohammad Hossein;
 Weber,Valery; Borstnik,Urban; Taillefumier,Mathieu;
 Jakobovits,Alice Shoshana; Lazzaro,Alfio; Pabst,Hans; Mueller,Tiziano;
 Schade,Robert; Guidon,Manuel; Andermatt,Samuel; Holmberg,Nico;
 Schenter,Gregory K.; Hehn,Anna; Bussy,Augustin; Belleflamme,Fabian;
 Tabacchi,Gloria; Gloess,Andreas; Lass,Michael; Bethune,Iain;
 Mundy,Christopher J.; Plessl,Christian; Watkins,Matt;
 VandeVondele,Joost; Krack,Matthias; Hutter,Juerg. 
 The Journal of Chemical Physics, 152 (19), (2020). 
 CP2K: An electronic structure and molecular dynamics software package -
 Quickstep: Efficient and accurate electronic structure calculations.
 https://doi.org/10.1063/5.0007045

 Goerigk, Lars; Hansen, Andreas; Bauer, Christoph; Ehrlich, Stephan;
 Najibi, Asim; Grimme, Stefan. , 19 (48), (2017). 
 A look at the density functional theory zoo with the advanced GMTKN55 database
 for general main group thermochemistry, kinetics and noncovalent interactions.
 https://doi.org/10.1039/C7CP04913G

 Schuett, Ole; Messmer, Peter; Hutter, Juerg; VandeVondele, Joost. 
 Electronic Structure Calculations on Graphics Processing Units, John
 Wiley & Sons, Ltd, 173-190 (2016). 
 GPU-Accelerated Sparse Matrix-Matrix Multiplication for
 Linear Scaling Density Functional Theory.
 https://doi.org/10.1002/9781118670712.ch8

 Heinecke, A; Henry, G; Hutchinson, M; Pabst, H. 
 Proceedings of Intl. Supercomputing Conference, 981-991 (2016). 
 LIBXSMM: Accelerating Small Matrix Multiplications
 by Runtime Code Generation.
 https://doi.org/10.1109/SC.2016.83

 Borstnik, U; VandeVondele, J; Weber, V; Hutter, J. 
 PARALLEL COMPUTING, 40 (5-6), 47-58 (2014). 
 Sparse matrix multiplication: The distributed block-compressed sparse
 row library.
 https://doi.org/10.1016/j.parco.2014.03.012

 Hutter, J; Iannuzzi, M; Schiffmann, F; VandeVondele, J. 
 WIREs Comput Mol Sci., 4 (1), 15-25 (2014). 
 CP2K: atomistic simulations of condensed matter systems.
 https://doi.org/10.1002/wcms.1159

 Grimme, S; Ehrlich, S; Goerigk, L. 
 JOURNAL OF COMPUTATIONAL CHEMISTRY, 32, 1456 (2011). 
 Effect of the damping function in dispersion corrected density functional theory.
 https://doi.org/10.1002/jcc.21759

 Grimme, S; Antony, J; Ehrlich, S; Krieg, H. 
 JOURNAL OF CHEMICAL PHYSICS, 132 (15), 154104 (2010). 
 A consistent and accurate ab initio parametrization of density
 functional dispersion correction (DFT-D) for the 94 elements H-Pu.
 https://doi.org/10.1063/1.3382344

 VandeVondele, J; Hutter, J. 
 JOURNAL OF CHEMICAL PHYSICS, 127 (11), 114105 (2007). 
 Gaussian basis sets for accurate calculations on molecular systems in
 gas and condensed phases.
 https://doi.org/10.1063/1.2770708

 Kuhne, TD; Krack, M; Mohamed, FR; Parrinello, M. 
 PHYSICAL REVIEW LETTERS, 98 (6), 066401 (2007). 
 Efficient and accurate Car-Parrinello-like approach to
 Born-Oppenheimer molecular dynamics.
 https://doi.org/10.1103/PhysRevLett.98.066401

 Krack, M. 
 THEORETICAL CHEMISTRY ACCOUNTS, 114 (1-3), 145-152 (2005). 
 Pseudopotentials for H to Kr optimized for gradient-corrected
 exchange-correlation functionals.
 https://doi.org/10.1007/s00214-005-0655-y

 VandeVondele, J; Krack, M; Mohamed, F; Parrinello, M; Chassaing, T;
 Hutter, J. COMPUTER PHYSICS COMMUNICATIONS, 167 (2), 103-128 (2005). 
 QUICKSTEP: Fast and accurate density functional calculations using a
 mixed Gaussian and plane waves approach.
 https://doi.org/10.1016/j.cpc.2004.12.014

 Frigo, M; Johnson, SG. 
 PROCEEDINGS OF THE IEEE, 93 (2), 216-231 (2005). 
 The design and implementation of FFTW3.
 https://doi.org/10.1109/JPROC.2004.840301

 Kolafa, J. 
 JOURNAL OF COMPUTATIONAL CHEMISTRY, 25 (3), 335-342 (2004). 
 Time-reversible always stable predictor-corrector method for
 molecular dynamics of polarizable molecules.
 https://doi.org/10.1002/jcc.10385

 VandeVondele, J; Hutter, J. 
 JOURNAL OF CHEMICAL PHYSICS, 118 (10), 4365-4369 (2003). 
 An efficient orbital transformation method for electronic structure
 calculations.
 https://doi.org/10.1063/1.1543154

 Hartwigsen, C; Goedecker, S; Hutter, J. 
 PHYSICAL REVIEW B, 58 (7), 3641-3662 (1998). 
 Relativistic separable dual-space Gaussian pseudopotentials from H to Rn.
 https://doi.org/10.1103/PhysRevB.58.3641

 Lippert, G; Hutter, J; Parrinello, M. 
 MOLECULAR PHYSICS, 92 (3), 477-487 (1997). 
 A hybrid Gaussian and plane wave density functional scheme.
 https://doi.org/10.1080/002689797170220

 Perdew, JP; Burke, K; Ernzerhof, M. 
 PHYSICAL REVIEW LETTERS, 77 (18), 3865-3868 (1996). 
 Generalized gradient approximation made simple.
 https://doi.org/10.1103/PhysRevLett.77.3865

 Goedecker, S; Teter, M; Hutter, J. 
 PHYSICAL REVIEW B, 54 (3), 1703-1710 (1996). 
 Separable dual-space Gaussian pseudopotentials.
 https://doi.org/10.1103/PhysRevB.54.1703


 -------------------------------------------------------------------------------
 -                                                                             -
 -                                T I M I N G                                  -
 -                                                                             -
 -------------------------------------------------------------------------------
 SUBROUTINE                       CALLS  ASD         SELF TIME        TOTAL TIME
                                MAXIMUM       AVERAGE  MAXIMUM  AVERAGE  MAXIMUM
 CP2K                                 1  1.0    0.029    0.045 8535.287 8535.303
 cp_geo_opt                           1  2.0    0.002    0.008 8533.841 8533.882
 geoopt_bfgs                          1  3.0    0.244    0.273 8533.839 8533.881
 cp_eval_at                          48  4.0    0.011    0.080 8502.858 8502.889
 qs_forces                           47  5.0    0.015    0.016 8455.249 8455.264
 qs_energies                         48  6.0    0.005    0.007 7961.021 7961.302
 scf_env_do_scf                      48  7.0    0.003    0.006 7626.909 7627.006
 scf_env_do_scf_inner_loop          766  8.0    0.018    0.067 5901.378 5911.885
 rebuild_ks_matrix                  813  9.8    0.004    0.005 3029.615 3032.304
 qs_ks_build_kohn_sham_matrix       813 10.8    0.119    0.138 3029.611 3032.300
 qs_ks_update_qs_env                815  9.0    0.006    0.007 2605.757 2608.189
 dbcsr_multiply_generic           11502 13.7    0.873    0.919 2055.626 2069.647
 qs_scf_new_mos                     766  9.0    0.005    0.006 1944.056 1950.031
 qs_scf_loop_do_ot                  766 10.0    0.006    0.007 1944.051 1950.026
 ot_scf_mini                        766 11.0    0.033    0.039 1811.020 1813.924
 multiply_cannon                  11502 14.7    1.215    1.463 1731.160 1770.420
 init_scf_loop                       49  8.0    0.003    0.003 1713.789 1713.844
 multiply_cannon_loop             11502 15.7    1.822    2.052 1667.795 1704.123
 qs_rho_update_rho                  814  9.1    0.005    0.023 1697.371 1701.501
 calculate_rho_elec                 814 10.1    3.553    3.682 1697.366 1701.496
 sum_up_and_integrate               454 11.7    2.197    2.236 1516.724 1517.048
 integrate_v_rspace                 454 12.7    0.019    0.022 1514.526 1514.926
 prepare_preconditioner              49  9.0    0.001    0.001 1433.851 1434.330
 multiply_cannon_multrec         138024 16.7 1332.035 1411.878 1332.212 1412.061
 make_preconditioner                 49 10.0    0.001    0.002 1384.349 1384.911
 make_full_all                       49 11.0    0.085    0.108 1341.737 1342.734
 grid_integrate_task_list           454 13.7 1292.040 1300.711 1292.040 1300.711
 grid_collocate_task_list           814 11.1 1235.156 1267.521 1235.156 1267.521
 qs_vxc_create                      813 11.8    0.017    0.020 1238.434 1238.939
 pw_transfer                      13537 13.3    1.064    1.170 1159.771 1177.252
 fft_wrap_pw1pw2                  11911 14.4    0.162    0.175 1142.277 1159.835
 fft_wrap_pw1pw2_180               6839 15.6   96.940   98.333 1104.243 1120.011
 ot_mini                            766 12.0    0.006    0.007 1078.172 1080.951
 cp_fm_syevd                        694 13.7    0.014    0.019  985.037  985.926
 cp_fm_syevd_base                   694 14.7  977.802  977.901  977.802  977.901
 xc_rho_set_and_dset_create         813 13.8    6.661    6.747  871.257  877.283
 fft3d_ps                         11911 16.4  483.953  494.241  857.732  876.297
 xc_vxc_pw_create                   454 12.7   30.388   33.518  851.802  852.304
 apply_preconditioner_dbcsr         456 14.0    0.001    0.002  618.571  623.398
 apply_all                          456 15.0    0.757    0.807  618.570  623.396
 ot_new_cg_direction                407 13.0    0.009    0.012  562.779  562.803
 qs_ot_get_derivative               407 13.0    0.006    0.015  511.530  514.042
 mp_waitall_1                    740765 17.5  413.329  485.828  413.329  485.828
 density_rs2pw                      814 11.1    0.061    0.069  442.138  461.084
 qs_ks_update_qs_env_forces          47  6.0    0.000    0.000  426.822  427.025
 xc_functional_eval                 813 14.8    0.011    0.014  398.455  404.006
 pbe_lda_eval                       813 15.8  398.444  403.995  398.444  403.995
 multiply_cannon_metrocomm3      138024 16.7    0.466    0.593  311.963  396.181
 xc_exc_calc                        359 13.0    1.519    1.531  386.615  386.635
 qs_ot_get_p                        815 11.9    0.006    0.008  303.960  308.681
 rs_pw_transfer                    6435 13.0    0.094    0.104  255.390  278.078
 init_scf_run                        48  7.0    0.001    0.004  252.859  252.867
 scf_env_initial_rho_setup           48  8.0    0.001    0.003  252.857  252.866
 wfi_extrapolate                     48  9.0    0.007    0.009  248.419  248.420
 x_to_yz                           5977 18.1  180.799  182.937  242.873  246.422
 make_m2s                         23004 14.7    0.856    0.964  234.220  237.270
 qs_ot_get_orbitals                 766 12.0    0.006    0.007  234.506  236.592
 cp_gemm                            791 10.2    0.002    0.003  234.207  236.272
 cp_gemm_fm_gemm                    791 11.2    0.003    0.003  234.204  236.270
 cp_fm_gemm                         791 12.2  234.201  236.267  234.201  236.267
 qs_ot_get_derivative_diag          249 14.0    0.008    0.010  215.108  216.840
 potential_pw2rs                    454 13.7    0.162    0.232  193.528  194.015
 cp_fm_cholesky_reduce               49 12.0  184.856  185.151  184.856  185.151
 make_images                      23004 15.7    5.321    5.478  167.020  171.384
 -------------------------------------------------------------------------------

 The number of warnings for this run is : 2
 
 -------------------------------------------------------------------------------
  **** **** ******  **  PROGRAM ENDED AT                 2022-09-04 20:11:21.251
 ***** ** ***  *** **   PROGRAM RAN ON             node1306.palmetto.clemson.edu
 **    ****   ******    PROGRAM RAN BY                                   xiutinc
 ***** **    ** ** **   PROGRAM PROCESS ID                                195168
  **** **  *******  **  PROGRAM STOPPED IN    /scratch1/xiutinc/CP2K-97008.pbs02
