ITEM: TIMESTEP
3000000
ITEM: NUMBER OF ATOMS
4761
ITEM: BOX BOUNDS pp pp pp
0.0000000000000000e+00 2.4433001000000001e+01
0.0000000000000000e+00 2.4433001000000001e+01
0.0000000000000000e+00 8.6882897779454566e+01
ITEM: ATOMS id mol type q x y z 
1 1 1 -0.834 10.2271 9.60136 85.141 
2 1 1 -0.834 21.0397 3.36347 54.2957 
3 1 1 -0.834 22.1809 16.6508 64.5394 
4 1 1 -0.834 8.70946 2.64514 42.0344 
5 1 1 -0.834 18.2287 20.3033 56.2205 
6 1 1 -0.834 11.7964 8.97202 0.306632 
7 1 1 -0.834 4.59296 11.414 74.7317 
8 1 1 -0.834 20.9576 4.8901 79.6316 
9 1 1 -0.834 1.7398 4.92043 31.0736 
10 1 1 -0.834 0.629431 17.303 43.0982 
11 1 1 -0.834 5.94321 15.8558 63.1811 
12 1 1 -0.834 12.8651 3.66675 24.6176 
13 1 1 -0.834 12.7589 18.9965 34.5716 
14 1 1 -0.834 5.861 7.65186 78.8843 
15 1 1 -0.834 15.4982 19.4731 33.7571 
16 1 1 -0.834 9.86819 16.3656 77.8442 
17 1 1 -0.834 10.2564 1.76001 79.3401 
18 1 1 -0.834 5.28845 20.8858 67.2729 
19 1 1 -0.834 9.76147 18.1467 71.4101 
20 1 1 -0.834 0.552873 4.27144 7.04505 
21 1 1 -0.834 7.43694 18.3627 12.5365 
22 1 1 -0.834 3.94012 12.5419 57.8336 
23 1 1 -0.834 1.21669 21.8489 68.4831 
24 1 1 -0.834 22.9574 5.91109 62.7927 
25 1 1 -0.834 9.20647 23.7605 61.5291 
26 1 1 -0.834 6.25652 18.945 20.1862 
27 1 1 -0.834 16.2745 17.3061 11.0782 
28 1 1 -0.834 17.6388 10.3717 50.6183 
29 1 1 -0.834 10.7678 17.1857 35.6249 
30 1 1 -0.834 0.867257 7.29321 35.3294 
31 1 1 -0.834 2.16311 19.895 43.5361 
32 1 1 -0.834 4.42547 17.0241 59.6369 
33 1 1 -0.834 4.38369 9.47484 53.8914 
34 1 1 -0.834 23.1689 15.631 57.8585 
35 1 1 -0.834 19.3474 19.5691 53.3896 
36 1 1 -0.834 21.0667 14.9552 45.5935 
37 1 1 -0.834 3.42006 20.3122 50.7271 
38 1 1 -0.834 11.0074 9.13406 42.2488 
39 1 1 -0.834 11.7067 20.9194 58.6642 
40 1 1 -0.834 0.227834 3.22024 73.8889 
41 1 1 -0.834 9.32953 10.3655 75.1388 
42 1 1 -0.834 9.10961 13.534 70.9485 
43 1 1 -0.834 1.52839 14.9395 23.8426 
44 1 1 -0.834 4.21052 4.97083 10.5237 
45 1 1 -0.834 15.0248 2.59954 59.7762 
46 1 1 -0.834 3.13157 0.629001 68.5012 
47 1 1 -0.834 20.0934 7.81137 66.0986 
48 1 1 -0.834 16.9359 14.3599 5.84709 
49 1 1 -0.834 6.0467 20.7791 58.2628 
50 1 1 -0.834 1.34472 17.3148 59.2735 
51 1 1 -0.834 11.6362 9.05009 75.9815 
52 1 1 -0.834 11.8452 16.1489 58.2879 
53 1 1 -0.834 19.7039 23.457 85.5673 
54 1 1 -0.834 21.871 12.8332 54.5544 
55 1 1 -0.834 0.81119 1.28677 58.2095 
56 1 1 -0.834 5.03906 9.38759 2.00476 
57 1 1 -0.834 11.4355 9.69343 56.7052 
58 1 1 -0.834 21.5536 19.7213 3.95317 
59 1 1 -0.834 3.56727 0.983132 76.4198 
60 1 1 -0.834 19.2393 18.2225 79.5495 
61 1 1 -0.834 17.6527 9.18238 59.6662 
62 1 1 -0.834 23.8829 11.216 15.7573 
63 1 1 -0.834 12.1233 3.01128 68.5122 
64 1 1 -0.834 20.7794 21.9818 53.4003 
65 1 1 -0.834 11.2198 8.78292 31.1108 
66 1 1 -0.834 13.9151 15.5192 56.4548 
67 1 1 -0.834 13.2436 15.2044 9.49773 
68 1 1 -0.834 15.5243 19.2662 46.245 
69 1 1 -0.834 8.18251 6.33447 5.3763 
70 1 1 -0.834 17.534 18.4717 51.3343 
71 1 1 -0.834 19.1892 0.0910086 28.9617 
72 1 1 -0.834 21.9862 12.0508 46.4722 
73 1 1 -0.834 23.9885 9.67078 18.7805 
74 1 1 -0.834 20.5594 7.60863 63.4306 
75 1 1 -0.834 15.4405 4.88867 0.180755 
76 1 1 -0.834 3.01053 8.18633 8.42101 
77 1 1 -0.834 0.615863 12.4739 22.5695 
78 1 1 -0.834 12.4916 7.73795 45.9373 
79 1 1 -0.834 15.6389 5.03545 76.2663 
80 1 1 -0.834 11.4765 18.6736 66.7594 
81 1 1 -0.834 13.9097 4.69989 45.8408 
82 1 1 -0.834 24.0925 22.1131 25.386 
83 1 1 -0.834 16.0687 14.3209 78.2868 
84 1 1 -0.834 4.12446 12.2086 45.3338 
85 1 1 -0.834 13.0732 19.6907 75.5622 
86 1 1 -0.834 13.9015 23.5671 83.7324 
87 1 1 -0.834 14.9713 22.7774 20.5978 
88 1 1 -0.834 2.52487 5.85889 59.3653 
89 1 1 -0.834 17.8581 4.92721 66.9941 
90 1 1 -0.834 7.67634 20.8789 78.1705 
91 1 1 -0.834 9.73859 24.0465 17.1566 
92 1 1 -0.834 14.2316 23.2688 58.1316 
93 1 1 -0.834 5.96525 12.5821 70.9198 
94 1 1 -0.834 13.5991 2.97786 41.7328 
95 1 1 -0.834 12.7701 13.3422 35.1087 
96 1 1 -0.834 2.96869 1.79821 54.8558 
97 1 1 -0.834 21.6141 5.58922 39.9576 
98 1 1 -0.834 12.5943 17.0344 54.5921 
99 1 1 -0.834 7.23742 1.30416 59.5474 
100 1 1 -0.834 4.36806 6.73502 29.9533 
101 1 1 -0.834 7.61705 1.43345 68.6007 
102 1 1 -0.834 4.31218 13.955 47.6849 
103 1 1 -0.834 14.1413 4.90529 81.3934 
104 1 1 -0.834 12.6166 19.2188 52.7631 
105 1 1 -0.834 6.71458 1.79 45.0661 
106 1 1 -0.834 3.59052 10.4921 78.2896 
107 1 1 -0.834 2.63334 11.4653 84.9176 
108 1 1 -0.834 4.39412 5.36736 70.7714 
109 1 1 -0.834 0.396897 6.89481 77.6141 
110 1 1 -0.834 13.9542 19.5244 57.4512 
111 1 1 -0.834 8.61149 16.5911 56.7503 
112 1 1 -0.834 15.5965 24.3912 65.4859 
113 1 1 -0.834 13.3403 24.2134 72.4971 
114 1 1 -0.834 11.4907 0.941175 20.1436 
115 1 1 -0.834 15.0954 1.31514 80.5436 
116 1 1 -0.834 20.3758 4.73717 47.3705 
117 1 1 -0.834 5.22984 0.0184115 71.9851 
118 1 1 -0.834 8.05939 9.67527 7.17697 
119 1 1 -0.834 5.02262 8.46604 70.588 
120 1 1 -0.834 16.6404 12.9391 58.5363 
121 1 1 -0.834 9.05846 19.9431 11.1315 
122 1 1 -0.834 16.7095 13.7488 69.4648 
123 1 1 -0.834 16.8316 21.5739 27.9145 
124 1 1 -0.834 10.1461 6.77501 1.09825 
125 1 1 -0.834 4.02339 12.6699 55.1745 
126 1 1 -0.834 12.6483 14.1758 52.7551 
127 1 1 -0.834 22.8193 19.5948 78.4891 
128 1 1 -0.834 18.6121 5.34793 83.7095 
129 1 1 -0.834 9.23591 7.10712 45.0022 
130 1 1 -0.834 15.4964 21.1365 43.0796 
131 1 1 -0.834 3.02954 3.66009 75.1968 
132 1 1 -0.834 13.2 14.735 32.0686 
133 1 1 -0.834 14.3423 17.762 77.1434 
134 1 1 -0.834 17.7682 5.69768 23.8013 
135 1 1 -0.834 7.32728 19.9828 82.0004 
136 1 1 -0.834 3.64673 11.1095 23.3517 
137 1 1 -0.834 6.79029 22.3297 61.2623 
138 1 1 -0.834 1.24831 0.720034 74.1938 
139 1 1 -0.834 1.49113 22.785 30.0912 
140 1 1 -0.834 14.7708 4.38982 67.6219 
141 1 1 -0.834 17.8793 7.0146 47.1783 
142 1 1 -0.834 2.81841 1.99661 34.2894 
143 1 1 -0.834 6.80733 12.7879 48.2661 
144 1 1 -0.834 6.76559 4.54834 69.6378 
145 1 1 -0.834 5.70311 16.0905 74.2384 
146 1 1 -0.834 1.74027 9.64334 59.663 
147 1 1 -0.834 5.67124 3.09785 11.7472 
148 1 1 -0.834 8.58734 19.4577 35.5565 
149 1 1 -0.834 18.6289 22.5159 68.9538 
150 1 1 -0.834 11.5112 9.31544 72.8666 
151 1 1 -0.834 21.0924 15.0553 42.5916 
152 1 1 -0.834 21.7749 14.8431 71.0373 
153 1 1 -0.834 20.6621 6.36651 74.199 
154 1 1 -0.834 2.91413 22.5372 66.3518 
155 1 1 -0.834 3.00924 5.32479 68.3268 
156 1 1 -0.834 22.0484 8.43665 72.805 
157 1 1 -0.834 18.0677 15.3157 45.5653 
158 1 1 -0.834 13.5322 11.0663 68.9907 
159 1 1 -0.834 18.4396 14.2291 67.4433 
160 1 1 -0.834 1.92168 12.7816 50.377 
161 1 1 -0.834 15.2038 11.4823 51.4335 
162 1 1 -0.834 18.9906 23.7455 22.9669 
163 1 1 -0.834 13.2191 7.71511 43.3341 
164 1 1 -0.834 5.99412 15.0152 85.7138 
165 1 1 -0.834 6.64898 8.9843 29.5803 
166 1 1 -0.834 3.86125 18.9935 76.3801 
167 1 1 -0.834 16.6978 22.9451 63.5361 
168 1 1 -0.834 2.38063 14.5077 45.8787 
169 1 1 -0.834 17.8845 4.95495 55.9172 
170 1 1 -0.834 18.9587 8.41574 77.0024 
171 1 1 -0.834 8.15861 19.7739 39.4214 
172 1 1 -0.834 0.28944 14.9267 44.173 
173 1 1 -0.834 24.3861 1.69116 29.0554 
174 1 1 -0.834 13.9647 14.9395 65.2533 
175 1 1 -0.834 7.11284 8.25951 23.9763 
176 1 1 -0.834 9.49758 2.57854 74.9845 
177 1 1 -0.834 10.9906 22.0633 45.7506 
178 1 1 -0.834 17.2614 4.76242 20.7351 
179 1 1 -0.834 18.9658 24.0465 78.8258 
180 1 1 -0.834 15.7142 2.01956 45.5799 
181 1 1 -0.834 4.99992 14.0612 43.3997 
182 1 1 -0.834 10.8109 1.93724 72.0859 
183 1 1 -0.834 8.48359 10.8445 51.1006 
184 1 1 -0.834 23.5389 17.3064 22.5071 
185 1 1 -0.834 6.69941 14.0807 81.4838 
186 1 1 -0.834 7.7144 4.68891 61.7825 
187 1 1 -0.834 3.60237 23.3955 8.93024 
188 1 1 -0.834 21.5632 18.5322 51.914 
189 1 1 -0.834 0.174041 2.42581 31.7136 
190 1 1 -0.834 6.9062 20.7814 55.2423 
191 1 1 -0.834 8.5506 9.93572 31.442 
192 1 1 -0.834 10.7726 3.49108 21.3244 
193 1 1 -0.834 23.8655 23.7643 61.2528 
194 1 1 -0.834 11.3009 11.1493 52.1419 
195 1 1 -0.834 4.00785 11.4071 64.7713 
196 1 1 -0.834 6.21124 23.5375 47.3627 
197 1 1 -0.834 6.12423 2.41858 31.3201 
198 1 1 -0.834 11.6079 18.4049 79.6435 
199 1 1 -0.834 15.1752 8.51792 51.9303 
200 1 1 -0.834 12.3376 12.5937 76.8365 
201 1 1 -0.834 5.64625 2.095 65.75 
202 1 1 -0.834 23.4418 12.0708 52.0378 
203 1 1 -0.834 11.7574 18.5973 60.1332 
204 1 1 -0.834 15.0867 3.52064 78.213 
205 1 1 -0.834 11.622 21.1848 80.1363 
206 1 1 -0.834 9.69844 8.69937 23.2093 
207 1 1 -0.834 16.7394 11.0274 37.1011 
208 1 1 -0.834 23.7932 12.2428 44.401 
209 1 1 -0.834 16.8611 6.9661 71.514 
210 1 1 -0.834 12.2896 18.3111 43.5114 
211 1 1 -0.834 22.8591 10.9931 81.2425 
212 1 1 -0.834 16.3479 15.7786 37.6644 
213 1 1 -0.834 2.40256 1.26394 65.7572 
214 1 1 -0.834 8.74338 7.85482 67.988 
215 1 1 -0.834 13.684 21.3311 77.6445 
216 1 1 -0.834 24.3122 24.2092 51.9017 
217 1 1 -0.834 10.5822 15.2081 50.7299 
218 1 1 -0.834 5.32101 7.10573 32.4109 
219 1 1 -0.834 16.0606 6.79052 85.3683 
220 1 1 -0.834 10.7456 21.8003 76.6622 
221 1 1 -0.834 21.6015 9.51525 34.6885 
222 1 1 -0.834 21.0211 23.7209 72.2813 
223 1 1 -0.834 22.5802 5.96462 11.4269 
224 1 1 -0.834 14.1991 13.0479 5.22786 
225 1 1 -0.834 22.6337 5.55837 65.4578 
226 1 1 -0.834 10.8839 9.76874 7.14925 
227 1 1 -0.834 21.9247 14.0403 76.6836 
228 1 1 -0.834 1.60504 20.5044 76.3708 
229 1 1 -0.834 19.482 12.7584 55.8426 
230 1 1 -0.834 9.01293 11.7311 1.76763 
231 1 1 -0.834 23.6708 23.8938 27.7336 
232 1 1 -0.834 1.44824 19.2341 79.073 
233 1 1 -0.834 16.2338 8.69119 45.4404 
234 1 1 -0.834 14.9995 15.9421 60.3274 
235 1 1 -0.834 5.39036 4.59171 74.1694 
236 1 1 -0.834 16.1715 10.9859 64.224 
237 1 1 -0.834 13.2733 6.47312 79.3395 
238 1 1 -0.834 21.0346 8.5204 10.6742 
239 1 1 -0.834 2.73176 14.6714 68.9683 
240 1 1 -0.834 3.10886 14.8466 26.1163 
241 1 1 -0.834 20.8249 9.44444 56.6471 
242 1 1 -0.834 24.1581 12.0655 55.5078 
243 1 1 -0.834 2.0618 8.7716 56.9456 
244 1 1 -0.834 10.523 5.19062 46.4954 
245 1 1 -0.834 16.9567 10.7202 47.3667 
246 1 1 -0.834 12.5616 0.00138996 45.5909 
247 1 1 -0.834 21.8217 10.905 74.2832 
248 1 1 -0.834 1.06952 5.51034 72.4836 
249 1 1 -0.834 5.21972 0.808452 51.0123 
250 1 1 -0.834 15.479 16.7232 47.4687 
251 1 1 -0.834 4.40588 20.027 45.5193 
252 1 1 -0.834 18.9607 3.27751 49.1713 
253 1 1 -0.834 5.01891 22.3297 39.1284 
254 1 1 -0.834 19.2738 20.2495 48.7458 
255 1 1 -0.834 15.3475 3.47295 64.5122 
256 1 1 -0.834 24.4195 24.1047 55.2079 
257 1 1 -0.834 16.1709 3.00209 55.2656 
258 1 1 -0.834 19.0165 3.47127 22.7359 
259 1 1 -0.834 5.1759 15.278 79.4831 
260 1 1 -0.834 7.57696 13.8724 43.7849 
261 1 1 -0.834 12.5933 14.2133 61.1964 
262 1 1 -0.834 7.95919 3.20665 33.63 
263 1 1 -0.834 7.045 0.719115 10.1688 
264 1 1 -0.834 4.39354 23.7113 56.212 
265 1 1 -0.834 9.87402 6.73887 42.3864 
266 1 1 -0.834 17.5047 2.78954 70.306 
267 1 1 -0.834 7.02331 2.80548 49.6706 
268 1 1 -0.834 15.5814 13.7049 62.1835 
269 1 1 -0.834 10.362 19.7488 74.6768 
270 1 1 -0.834 20.1475 24.3627 76.1573 
271 1 1 -0.834 21.3856 5.87923 44.6949 
272 1 1 -0.834 21.2234 10.6067 43.5586 
273 1 1 -0.834 17.3895 18.2516 68.3205 
274 1 1 -0.834 15.5881 15.6969 8.02932 
275 1 1 -0.834 0.31274 5.94317 9.37372 
276 1 1 -0.834 4.37137 4.48413 5.08076 
277 1 1 -0.834 10.889 12.3881 56.3448 
278 1 1 -0.834 19.5401 1.70428 71.8033 
279 1 1 -0.834 7.79623 21.65 75.6501 
280 1 1 -0.834 1.05551 21.141 27.4339 
281 1 1 -0.834 16.1231 22.4582 45.813 
282 1 1 -0.834 20.6111 18.9924 65.4235 
283 1 1 -0.834 16.9468 17.4523 61.4329 
284 1 1 -0.834 8.35405 11.8524 24.2969 
285 1 1 -0.834 11.1514 8.81337 60.7959 
286 1 1 -0.834 5.00539 5.95768 53.6747 
287 1 1 -0.834 7.04439 13.8102 74.8781 
288 1 1 -0.834 0.281764 2.79842 46.3903 
289 1 1 -0.834 15.8174 9.40811 42.2653 
290 1 1 -0.834 0.0216326 11.9546 59.9958 
291 1 1 -0.834 2.76031 9.68575 67.2264 
292 1 1 -0.834 10.0896 5.23558 25.2362 
293 1 1 -0.834 3.01848 4.13405 52.4766 
294 1 1 -0.834 20.9151 1.2404 47.3821 
295 1 1 -0.834 7.53901 0.0794406 54.8276 
296 1 1 -0.834 13.7308 5.83028 73.437 
297 1 1 -0.834 7.57249 14.6563 78.4698 
298 1 1 -0.834 3.89848 17.8943 71.4041 
299 1 1 -0.834 18.4272 14.963 60.971 
300 1 1 -0.834 10.8895 14.9918 54.7724 
301 1 1 -0.834 3.79491 19.9386 53.9832 
302 1 1 -0.834 6.0046 7.69372 6.8317 
303 1 1 -0.834 0.852814 13.7465 57.5442 
304 1 1 -0.834 7.51156 8.96343 60.4011 
305 1 1 -0.834 22.2567 19.2117 62.9188 
306 1 1 -0.834 21.6169 19.5593 45.4056 
307 1 1 -0.834 10.7055 20.6248 62.9993 
308 1 1 -0.834 7.45818 8.56818 46.2413 
309 1 1 -0.834 6.8161 2.54724 77.8431 
310 1 1 -0.834 12.998 2.39184 65.7613 
311 1 1 -0.834 18.069 21.821 86.7906 
312 1 1 -0.834 11.1975 8.28876 49.7312 
313 1 1 -0.834 23.865 12.6972 70.7218 
314 1 1 -0.834 4.61179 20.527 60.7972 
315 1 1 -0.834 11.5168 18.0654 64.1222 
316 1 1 -0.834 16.4423 11.9536 73.5553 
317 1 1 -0.834 4.93003 24.4268 61.8552 
318 1 1 -0.834 17.2715 8.42106 64.3959 
319 1 1 -0.834 0.912994 8.30829 16.8354 
320 1 1 -0.834 6.54328 10.5159 26.1777 
321 1 1 -0.834 19.4469 17.7253 46.4393 
322 1 1 -0.834 20.2392 2.37011 43.5054 
323 1 1 -0.834 4.22107 2.74068 71.7718 
324 1 1 -0.834 6.99122 18.2104 48.3368 
325 1 1 -0.834 24.2471 5.49911 33.1852 
326 1 1 -0.834 12.5779 7.09936 3.08684 
327 1 1 -0.834 14.3722 3.78207 16.4223 
328 1 1 -0.834 3.78752 5.37896 61.6883 
329 1 1 -0.834 20.1457 19.2734 7.35662 
330 1 1 -0.834 6.33203 18.3526 44.4012 
331 1 1 -0.834 17.375 1.16124 0.73375 
332 1 1 -0.834 23.7187 18.2448 54.4882 
333 1 1 -0.834 10.8281 8.18595 65.5984 
334 1 1 -0.834 5.48838 23.4369 78.8375 
335 1 1 -0.834 6.19633 23.9788 75.8897 
336 1 1 -0.834 9.72061 4.59394 51.229 
337 1 1 -0.834 1.8101 9.09213 64.2675 
338 1 1 -0.834 15.3154 1.64711 68.0495 
339 1 1 -0.834 18.6016 21.1702 30.0807 
340 1 1 -0.834 18.5959 16.9706 55.0654 
341 1 1 -0.834 4.92785 2.27226 47.4832 
342 1 1 -0.834 4.62123 0.434761 37.6875 
343 1 1 -0.834 13.1868 12.8387 11.4732 
344 1 1 -0.834 16.4009 23.521 82.5207 
345 1 1 -0.834 23.9238 21.6008 71.1851 
346 1 1 -0.834 2.42758 14.5716 84.321 
347 1 1 -0.834 2.9236 17.2718 23.6019 
348 1 1 -0.834 9.38989 21.5175 41.3276 
349 1 1 -0.834 2.5925 21.4004 56.4964 
350 1 1 -0.834 8.39222 16.301 45.4541 
351 1 1 -0.834 4.83163 4.46053 50.123 
352 1 1 -0.834 13.0601 10.0711 5.62943 
353 1 1 -0.834 10.0989 14.1656 58.6551 
354 1 1 -0.834 16.8157 20.3422 2.41631 
355 1 1 -0.834 16.1598 19.2215 75.2097 
356 1 1 -0.834 23.1953 16.984 85.091 
357 1 1 -0.834 19.2013 4.20771 74.988 
358 1 1 -0.834 7.55596 5.38736 78.6578 
359 1 1 -0.834 10.0429 6.51852 74.8621 
360 1 1 -0.834 9.21658 0.340815 43.7903 
361 1 1 -0.834 11.4838 22.9902 18.8536 
362 1 1 -0.834 17.4804 23.905 26.6871 
363 1 1 -0.834 14.1877 20.8021 40.1425 
364 1 1 -0.834 18.8079 14.8657 12.0788 
365 1 1 -0.834 0.0230393 15.1686 64.4589 
366 1 1 -0.834 9.26653 5.93107 69.8689 
367 1 1 -0.834 15.4505 6.95252 22.5916 
368 1 1 -0.834 17.6029 12.2725 32.4983 
369 1 1 -0.834 13.9199 1.56483 57.0811 
370 1 1 -0.834 13.1482 17.8337 31.7995 
371 1 1 -0.834 13.4944 20.0299 63.0352 
372 1 1 -0.834 2.25869 19.9612 82.5584 
373 1 1 -0.834 5.34088 1.38947 57.7338 
374 1 1 -0.834 13.6767 15.4381 36.4901 
375 1 1 -0.834 17.9636 9.81697 12.3881 
376 1 1 -0.834 23.2056 20.2743 23.6942 
377 1 1 -0.834 22.1962 16.3956 78.2576 
378 1 1 -0.834 9.67061 4.43078 76.8571 
379 1 1 -0.834 8.05807 3.10702 65.3217 
380 1 1 -0.834 0.241866 5.84864 67.9639 
381 1 1 -0.834 5.44438 1.58356 53.5647 
382 1 1 -0.834 16.1923 24.2737 43.6726 
383 1 1 -0.834 8.54932 23.158 35.9986 
384 1 1 -0.834 18.6661 20.5772 63.0822 
385 1 1 -0.834 3.00801 8.73538 42.7405 
386 1 1 -0.834 0.419597 15.4835 68.073 
387 1 1 -0.834 20.4262 5.46327 14.9453 
388 1 1 -0.834 7.20356 11.3691 73.4727 
389 1 1 -0.834 11.3013 7.57965 52.4802 
390 1 1 -0.834 24.0618 6.3371 15.59 
391 1 1 -0.834 2.17802 22.9254 50.5126 
392 1 1 -0.834 9.4942 0.0199521 52.8766 
393 1 1 -0.834 6.66068 7.67825 48.9302 
394 1 1 -0.834 17.7173 10.6623 66.9965 
395 1 1 -0.834 19.4143 24.3205 2.49299 
396 1 1 -0.834 21.9995 17.5791 75.296 
397 1 1 -0.834 3.11564 12.3689 70.3137 
398 1 1 -0.834 10.4901 12.917 43.6162 
399 1 1 -0.834 10.234 12.4246 30.6899 
400 1 1 -0.834 5.48367 12.8492 83.7647 
401 1 1 -0.834 22.3301 9.20412 41.3638 
402 1 1 -0.834 17.2359 24.1682 52.7932 
403 1 1 -0.834 0.600242 21.4604 54.468 
404 1 1 -0.834 20.038 5.67277 70.1564 
405 1 1 -0.834 14.4826 10.9951 61.535 
406 1 1 -0.834 19.3803 16.2318 9.94915 
407 1 1 -0.834 24.3281 10.2698 66.9896 
408 1 1 -0.834 17.818 12.0717 80.1259 
409 1 1 -0.834 1.37858 2.5826 63.001 
410 1 1 -0.834 4.82821 9.04269 46.2014 
411 1 1 -0.834 18.076 21.7719 73.5485 
412 1 1 -0.834 23.9024 20.6305 42.4445 
413 1 1 -0.834 16.3146 16.7702 65.4788 
414 1 1 -0.834 24.2585 8.64023 11.5959 
415 1 1 -0.834 9.61423 11.5403 4.91629 
416 1 1 -0.834 11.0481 10.1226 45.0819 
417 1 1 -0.834 23.3333 0.942248 76.9353 
418 1 1 -0.834 17.5486 3.64337 85.7442 
419 1 1 -0.834 14.1486 2.46536 0.96583 
420 1 1 -0.834 17.7145 7.16163 68.9318 
421 1 1 -0.834 2.73732 21.5695 62.9444 
422 1 1 -0.834 9.79825 9.2866 2.76404 
423 1 1 -0.834 5.54489 16.9989 41.032 
424 1 1 -0.834 9.99939 13.0351 75.0963 
425 1 1 -0.834 14.4606 13.065 55.8904 
426 1 1 -0.834 17.0239 11.373 44.8255 
427 1 1 -0.834 19.8126 0.707806 59.3325 
428 1 1 -0.834 4.125 23.43 35.2427 
429 1 1 -0.834 9.78315 4.20342 27.7062 
430 1 1 -0.834 19.8016 8.97345 71.4985 
431 1 1 -0.834 5.73546 12.4134 50.9452 
432 1 1 -0.834 4.23963 4.84599 47.4868 
433 1 1 -0.834 0.0377044 3.50006 77.2001 
434 1 1 -0.834 22.0559 21.3883 68.9402 
435 1 1 -0.834 15.1016 8.84643 54.7046 
436 1 1 -0.834 22.3203 7.58228 46.9551 
437 1 1 -0.834 23.4634 12.1777 41.6124 
438 1 1 -0.834 13.2227 0.199247 77.2274 
439 1 1 -0.834 21.9589 11.968 38.1216 
440 1 1 -0.834 10.6307 6.26773 85.228 
441 1 1 -0.834 22.5363 8.88322 16.3429 
442 1 1 -0.834 7.1765 16.0111 50.4383 
443 1 1 -0.834 12.5016 0.897513 49.4795 
444 1 1 -0.834 23.3307 2.99466 67.1559 
445 1 1 -0.834 13.9217 13.0738 58.9856 
446 1 1 -0.834 22.9746 18.2918 67.3387 
447 1 1 -0.834 9.53976 15.6927 42.3217 
448 1 1 -0.834 3.49712 24.2793 48.725 
449 1 1 -0.834 13.3247 18.0337 13.9505 
450 1 1 -0.834 4.35101 13.9556 17.8795 
451 1 1 -0.834 2.53634 16.1244 50.9397 
452 1 1 -0.834 11.3416 14.5662 68.3508 
453 1 1 -0.834 4.94285 14.2187 77.1166 
454 1 1 -0.834 8.62634 8.06557 26.2298 
455 1 1 -0.834 23.1064 14.474 21.9463 
456 1 1 -0.834 5.29624 10.5768 59.0316 
457 1 1 -0.834 14.2373 17.6242 70.7628 
458 1 1 -0.834 22.086 13.0042 49.4532 
459 1 1 -0.834 22.7226 23.943 74.608 
460 1 1 -0.834 11.2917 2.01267 60.2911 
461 1 1 -0.834 8.66316 14.9969 48.1496 
462 1 1 -0.834 7.98761 2.79964 52.6148 
463 1 1 -0.834 3.97573 13.7649 63.338 
464 1 1 -0.834 8.01341 18.294 74.7155 
465 1 1 -0.834 16.6192 9.95584 14.7595 
466 1 1 -0.834 21.0325 11.4682 68.9295 
467 1 1 -0.834 1.28103 15.0039 62.0939 
468 1 1 -0.834 7.20974 22.9315 67.0522 
469 1 1 -0.834 0.641845 0.888556 79.1688 
470 1 1 -0.834 9.49171 6.80064 60.8827 
471 1 1 -0.834 23.3674 10.0983 57.5621 
472 1 1 -0.834 14.2458 10.9773 34.5009 
473 1 1 -0.834 23.4866 23.1933 67.3711 
474 1 1 -0.834 17.4009 10.0148 78.3965 
475 1 1 -0.834 0.306028 1.58072 69.3122 
476 1 1 -0.834 13.0827 3.89727 50.6302 
477 1 1 -0.834 0.367076 18.979 65.4027 
478 1 1 -0.834 4.29698 15.6961 20.5515 
479 1 1 -0.834 6.67938 14.6359 24.1856 
480 1 1 -0.834 15.7139 7.36038 60.1638 
481 1 1 -0.834 19.2412 1.75625 24.7332 
482 1 1 -0.834 10.6417 11.2779 62.1626 
483 1 1 -0.834 17.0453 14.5743 72.1503 
484 1 1 -0.834 16.8288 17.3612 28.9745 
485 1 1 -0.834 15.5464 5.92099 48.2432 
486 1 1 -0.834 15.3329 21.1389 48.4274 
487 1 1 -0.834 5.29229 19.8541 40.3387 
488 1 1 -0.834 6.14885 21.2587 73.5303 
489 1 1 -0.834 15.7572 20.3754 9.47675 
490 1 1 -0.834 11.2913 12.1739 72.4928 
491 1 1 -0.834 12.9878 11.8677 8.19066 
492 1 1 -0.834 3.30881 6.60626 45.3528 
493 1 1 -0.834 1.86118 22.5915 60.5483 
494 1 1 -0.834 14.1574 19.2041 11.622 
495 1 1 -0.834 9.90215 20.9741 56.3698 
496 1 1 -0.834 19.5608 12.5421 45.0464 
497 1 1 -0.834 16.9772 5.69056 50.8425 
498 1 1 -0.834 22.7624 7.63251 54.5414 
499 1 1 -0.834 9.06062 15.7122 73.6226 
500 1 1 -0.834 0.0766117 8.2022 44.1705 
501 1 1 -0.834 19.2853 6.53844 40.4276 
502 1 1 -0.834 12.9578 11.4799 49.8896 
503 1 1 -0.834 9.26148 21.767 51.6006 
504 1 1 -0.834 5.18382 10.5707 85.5314 
505 1 1 -0.834 4.85259 24.0595 64.7883 
506 1 1 -0.834 20.5649 21.9459 46.9545 
507 1 1 -0.834 13.9048 6.33612 61.9889 
508 1 1 -0.834 4.84203 18.813 73.859 
509 1 1 -0.834 20.9152 1.0376 27.1895 
510 1 1 -0.834 12.8351 5.58242 20.7087 
511 1 1 -0.834 8.62719 17.507 37.8819 
512 1 1 -0.834 19.526 13.5585 35.0377 
513 1 1 -0.834 4.10764 10.9515 20.768 
514 1 1 -0.834 1.8543 5.24843 55.3251 
515 1 1 -0.834 14.2318 17.5089 50.9559 
516 1 1 -0.834 8.16568 24.3553 79.5249 
517 1 1 -0.834 9.969 24.039 48.2791 
518 1 1 -0.834 1.73832 10.8049 44.3994 
519 1 1 -0.834 18.0746 14.67 80.2038 
520 1 1 -0.834 6.71635 11.3436 5.58586 
521 1 1 -0.834 10.7084 4.11538 43.6563 
522 1 1 -0.834 10.1949 0.572069 76.931 
523 1 1 -0.834 13.2094 8.00833 23.9068 
524 1 1 -0.834 0.573209 16.2597 52.9135 
525 1 1 -0.834 7.59371 9.52071 55.9366 
526 1 1 -0.834 8.87092 2.63891 55.2275 
527 1 1 -0.834 17.6138 6.68547 78.5368 
528 1 1 -0.834 10.3225 14.9221 33.8676 
529 1 1 -0.834 8.99155 2.7764 46.4189 
530 1 1 -0.834 0.966417 16.521 48.3093 
531 1 1 -0.834 12.61 17.0366 68.6221 
532 1 1 -0.834 18.1023 22.4843 4.05907 
533 1 1 -0.834 19.5667 20.8293 71.3122 
534 1 1 -0.834 13.7316 11.4414 53.7335 
535 1 1 -0.834 14.8939 16.1599 4.80414 
536 1 1 -0.834 16.626 17.1662 78.8291 
537 1 1 -0.834 22.3733 21.1059 6.73132 
538 1 1 -0.834 19.6863 9.13427 40.871 
539 1 1 -0.834 16.299 20.7384 53.2387 
540 1 1 -0.834 17.624 1.39511 21.095 
541 1 1 -0.834 18.954 0.541723 62.0274 
542 1 1 -0.834 17.0129 9.73712 71.9034 
543 1 1 -0.834 22.198 12.257 18.6656 
544 1 1 -0.834 21.2669 16.3504 2.55104 
545 1 1 -0.834 19.0164 11.3747 63.2945 
546 1 1 -0.834 16.8903 7.68203 16.3364 
547 1 1 -0.834 17.7685 18.548 8.59991 
548 1 1 -0.834 19.4859 7.42008 12.9527 
549 1 1 -0.834 9.94619 23.3459 58.8553 
550 1 1 -0.834 0.932074 13.5302 53.4875 
551 1 1 -0.834 13.4275 10.855 27.6029 
552 1 1 -0.834 12.4262 23.9194 60.3943 
553 1 1 -0.834 9.93992 2.07573 62.7917 
554 1 1 -0.834 12.0928 22.2749 74.1665 
555 1 1 -0.834 17.6072 21.7563 60.9819 
556 1 1 -0.834 23.5541 22.7974 31.4302 
557 1 1 -0.834 17.6478 5.49258 64.3168 
558 1 1 -0.834 0.86235 12.0489 82.8156 
559 1 1 -0.834 19.0861 13.0114 53.0672 
560 1 1 -0.834 1.604 18.5729 86.5983 
561 1 1 -0.834 8.18137 19.5963 61.9039 
562 1 1 -0.834 3.24992 17.329 42.5597 
563 1 1 -0.834 21.1869 21.4764 1.3456 
564 1 1 -0.834 6.4428 3.95184 6.81242 
565 1 1 -0.834 8.16404 2.43564 71.1043 
566 1 1 -0.834 24.3485 21.9185 47.63 
567 1 1 -0.834 13.9998 4.13594 53.759 
568 1 1 -0.834 18.5474 11.442 39.4642 
569 1 1 -0.834 10.9616 2.21883 52.0902 
570 1 1 -0.834 10.1817 24.3602 81.5969 
571 1 1 -0.834 12.1666 2.96251 46.9149 
572 1 1 -0.834 0.552428 18.0387 69.8596 
573 1 1 -0.834 13.4335 23.504 43.1365 
574 1 1 -0.834 11.8098 17.5453 49.569 
575 1 1 -0.834 12.8037 21.7582 71.0324 
576 1 1 -0.834 15.0123 20.8074 73.0848 
577 1 1 -0.834 20.4893 0.282012 50.1541 
578 1 1 -0.834 13.6846 7.83814 56.9703 
579 1 1 -0.834 8.78843 13.2198 68.2946 
580 1 1 -0.834 21.4641 13.7216 40.1146 
581 1 1 -0.834 10.1387 21.0177 66.3137 
582 1 1 -0.834 23.1969 21.2066 51.2189 
583 1 1 -0.834 6.08028 11.8949 3.02973 
584 1 1 -0.834 16.2957 13.1485 66.3798 
585 1 1 -0.834 11.9836 7.3025 26.5377 
586 1 1 -0.834 0.269996 10.3686 73.8669 
587 1 1 -0.834 7.86991 11.3605 85.5077 
588 1 1 -0.834 16.4975 18.5449 5.19595 
589 1 1 -0.834 22.0877 3.28955 45.406 
590 1 1 -0.834 1.53323 11.1397 76.1796 
591 1 1 -0.834 4.9144 2.55264 36.1095 
592 1 1 -0.834 1.39106 5.44647 63.3597 
593 1 1 -0.834 16.5243 4.81567 60.0811 
594 1 1 -0.834 18.8728 17.0444 74.5068 
595 1 1 -0.834 0.140309 18.9479 73.7479 
596 1 1 -0.834 3.90781 7.26775 48.6424 
597 1 1 -0.834 9.76522 11.7985 78.1212 
598 1 1 -0.834 0.594863 5.96696 37.5891 
599 1 1 -0.834 16.4198 17.8083 35.6542 
600 1 1 -0.834 11.2736 3.55189 85.6242 
601 1 1 -0.834 20.8083 24.028 42.8042 
602 1 1 -0.834 1.10364 12.8081 86.6019 
603 1 1 -0.834 3.17588 0.871957 59.7945 
604 1 1 -0.834 13.7182 12.1398 65.1157 
605 1 1 -0.834 15.5153 16.9229 54.1668 
606 1 1 -0.834 9.32343 21.7731 81.4217 
607 1 1 -0.834 18.5572 16.0254 69.8775 
608 1 1 -0.834 9.3575 14.0228 3.27142 
609 1 1 -0.834 2.77678 23.014 70.7501 
610 1 1 -0.834 1.26496 15.4529 78.6876 
611 1 1 -0.834 4.99881 17.513 16.9261 
612 1 1 -0.834 6.82312 2.1038 75.169 
613 1 1 -0.834 0.872219 22.6278 3.1511 
614 1 1 -0.834 2.61317 1.45542 51.5443 
615 1 1 -0.834 22.6885 1.69719 55.8761 
616 1 1 -0.834 13.0967 4.07177 60.9614 
617 1 1 -0.834 4.55844 8.77533 27.6364 
618 1 1 -0.834 11.4331 21.7338 53.6915 
619 1 1 -0.834 11.3664 6.84095 63.2728 
620 1 1 -0.834 16.3328 12.9353 8.89779 
621 1 1 -0.834 10.5755 4.47623 64.4058 
622 1 1 -0.834 17.3564 12.8692 13.6666 
623 1 1 -0.834 4.97264 4.29033 32.9225 
624 1 1 -0.834 15.9018 18.9084 31.2948 
625 1 1 -0.834 23.3595 14.1957 47.3128 
626 1 1 -0.834 19.3316 7.34387 55.291 
627 1 1 -0.834 12.2201 22.1979 38.6169 
628 1 1 -0.834 15.2728 10.3138 8.75075 
629 1 1 -0.834 7.56129 5.45908 31.4635 
630 1 1 -0.834 17.7866 4.29123 46.0759 
631 1 1 -0.834 14.6011 20.3129 51.0795 
632 1 1 -0.834 6.07869 5.94754 45.5417 
633 1 1 -0.834 5.75814 7.82734 43.6138 
634 1 1 -0.834 19.8607 6.53185 19.5308 
635 1 1 -0.834 6.34405 10.7444 22.8885 
636 1 1 -0.834 12.7248 16.0013 80.7477 
637 1 1 -0.834 1.14047 10.7788 80.3707 
638 1 1 -0.834 8.62363 7.87035 52.9057 
639 1 1 -0.834 5.57869 16.7631 22.8928 
640 1 1 -0.834 20.4309 20.6771 60.8593 
641 1 1 -0.834 6.62241 23.6427 43.2326 
642 1 1 -0.834 2.39314 12.7229 66.886 
643 1 1 -0.834 18.1411 23.7055 66.2338 
644 1 1 -0.834 10.3258 1.74573 57.81 
645 1 1 -0.834 10.4118 6.96655 29.0217 
646 1 1 -0.834 15.1669 15.1379 34.1471 
647 1 1 -0.834 7.12399 16.6421 82.2596 
648 1 1 -0.834 2.1298 3.23477 10.0149 
649 1 1 -0.834 0.0149446 23.4956 5.83805 
650 1 1 -0.834 14.0312 3.02522 70.6009 
651 1 1 -0.834 19.6517 12.1254 41.9437 
652 1 1 -0.834 20.6178 2.27597 78.0663 
653 1 1 -0.834 1.83199 9.20616 39.5157 
654 1 1 -0.834 2.62349 19.9025 59.0483 
655 1 1 -0.834 20.9823 9.59779 20.0346 
656 1 1 -0.834 12.9585 23.6105 80.1229 
657 1 1 -0.834 19.5968 8.16293 49.2754 
658 1 1 -0.834 8.91143 19.9762 43.5594 
659 1 1 -0.834 21.7186 24.2174 24.6758 
660 1 1 -0.834 6.75114 2.01713 62.4205 
661 1 1 -0.834 8.60038 0.46871 12.5233 
662 1 1 -0.834 6.64232 11.8884 29.8681 
663 1 1 -0.834 19.3041 15.5718 6.99607 
664 1 1 -0.834 14.042 23.7604 68.7834 
665 1 1 -0.834 19.7714 14.8102 32.3226 
666 1 1 -0.834 22.4698 4.14255 49.6173 
667 1 1 -0.834 14.5807 18.0215 80.1694 
668 1 1 -0.834 12.6937 5.99311 48.7492 
669 1 1 -0.834 18.2149 21.9645 43.272 
670 1 1 -0.834 6.6295 11.4757 78.9102 
671 1 1 -0.834 8.66997 10.3626 28.1278 
672 1 1 -0.834 5.26318 7.94089 67.6243 
673 1 1 -0.834 20.5519 2.30143 52.0364 
674 1 1 -0.834 4.0183 19.6791 84.631 
675 1 1 -0.834 14.3596 10.8338 31.5752 
676 1 1 -0.834 23.0239 2.72407 34.13 
677 1 1 -0.834 10.7027 16.1357 8.27301 
678 1 1 -0.834 0.987425 19.9395 52.2595 
679 1 1 -0.834 15.9165 4.2979 25.102 
680 1 1 -0.834 7.78643 21.3274 71.4061 
681 1 1 -0.834 18.0323 16.32 48.476 
682 1 1 -0.834 21.7057 4.5805 56.5427 
683 1 1 -0.834 23.3986 24.2077 70.5304 
684 1 1 -0.834 18.9412 13.0026 8.07975 
685 1 1 -0.834 23.9958 2.06311 50.3521 
686 1 1 -0.834 8.24641 13.6354 51.8169 
687 1 1 -0.834 7.3282 13.8738 0.910962 
688 1 1 -0.834 14.2526 1.43164 51.718 
689 1 1 -0.834 10.0166 0.362154 64.9789 
690 1 1 -0.834 8.9042 9.48067 64.1822 
691 1 1 -0.834 6.54246 12.1158 65.906 
692 1 1 -0.834 2.68981 5.62382 80.5851 
693 1 1 -0.834 20.3909 19.0447 69.1877 
694 1 1 -0.834 13.4209 23.8135 16.2421 
695 1 1 -0.834 3.22402 4.45738 37.1895 
696 1 1 -0.834 10.0981 21.418 49.0204 
697 1 1 -0.834 7.06224 18.4732 70.6572 
698 1 1 -0.834 5.9458 5.17681 59.6861 
699 1 1 -0.834 20.0827 17.4133 43.5254 
700 1 1 -0.834 13.3718 9.90632 2.75333 
701 1 1 -0.834 16.0061 2.1048 74.2164 
702 1 1 -0.834 13.3773 2.93381 73.2936 
703 1 1 -0.834 7.80273 4.91063 43.3896 
704 1 1 -0.834 12.4556 1.71272 81.1349 
705 1 1 -0.834 13.3838 20.4629 45.1608 
706 1 1 -0.834 1.75451 11.3431 19.8208 
707 1 1 -0.834 22.4482 20.008 31.0961 
708 1 1 -0.834 2.11004 20.2529 71.1978 
709 1 1 -0.834 9.48036 1.79334 14.9496 
710 1 1 -0.834 4.56788 3.26629 68.631 
711 1 1 -0.834 7.42563 17.1844 18.2571 
712 1 1 -0.834 20.291 1.85687 64.5127 
713 1 1 -0.834 22.5188 7.4921 60.4257 
714 1 1 -0.834 5.55705 23.8099 69.2824 
715 1 1 -0.834 3.3409 16.9307 83.2838 
716 1 1 -0.834 14.5063 6.07509 65.0038 
717 1 1 -0.834 14.7226 23.9401 47.9182 
718 1 1 -0.834 20.1207 10.2009 80.528 
719 1 1 -0.834 20.7648 20.0962 57.3838 
720 1 1 -0.834 18.3145 20.475 45.88 
721 1 1 -0.834 13.6802 20.7717 15.7151 
722 1 1 -0.834 7.69123 8.83187 41.7272 
723 1 1 -0.834 0.459529 22.3398 73.8277 
724 1 1 -0.834 3.93444 11.5085 81.2952 
725 1 1 -0.834 14.9487 23.3421 74.7578 
726 1 1 -0.834 14.8712 7.51159 82.5136 
727 1 1 -0.834 3.20268 14.3705 74.7944 
728 1 1 -0.834 19.9628 10.4423 47.7865 
729 1 1 -0.834 2.35034 3.50623 28.5298 
730 1 1 -0.834 20.3032 17.5845 49.2846 
731 1 1 -0.834 9.52103 12.6081 46.2458 
732 1 1 -0.834 18.4227 12.063 60.7567 
733 1 1 -0.834 10.269 20.962 70.4663 
734 1 1 -0.834 17.7634 0.379776 49.9517 
735 1 1 -0.834 5.8414 6.80086 26.2073 
736 1 1 -0.834 12.9253 17.1845 6.44361 
737 1 1 -0.834 1.55601 11.2264 41.5917 
738 1 1 -0.834 21.1777 15.6537 61.9296 
739 1 1 -0.834 18.8992 7.8132 52.3074 
740 1 1 -0.834 11.4142 16.9946 38.2758 
741 1 1 -0.834 6.24923 19.8197 52.8403 
742 1 1 -0.834 23.4599 13.3413 67.3343 
743 1 1 -0.834 23.5769 6.23383 79.9824 
744 1 1 -0.834 8.90482 10.5381 68.6475 
745 1 1 -0.834 2.5179 13.3862 59.9753 
746 1 1 -0.834 10.6303 5.52922 72.1188 
747 1 1 -0.834 19.356 10.9329 35.035 
748 1 1 -0.834 9.29624 18.4051 49.9529 
749 1 1 -0.834 21.5357 1.94375 2.86934 
750 1 1 -0.834 0.914338 9.41207 52.2221 