 DBCSR| CPU Multiplication driver                                           XSMM
 DBCSR| Multrec recursion limit                                              512
 DBCSR| Multiplication stack size                                           1000
 DBCSR| Maximum elements for images                                    UNLIMITED
 DBCSR| Multiplicative factor virtual images                                   1
 DBCSR| Use multiplication densification                                       T
 DBCSR| Multiplication size stacks                                             3
 DBCSR| Number of 3D layers                                               SINGLE
 DBCSR| Use MPI memory allocation                                              T
 DBCSR| Use RMA algorithm                                                      F
 DBCSR| Use Communication thread                                               T
 DBCSR| Communication thread load                                             87


  **** **** ******  **  PROGRAM STARTED AT               2022-07-05 19:06:17.627
 ***** ** ***  *** **   PROGRAM STARTED ON         node0245.palmetto.clemson.edu
 **    ****   ******    PROGRAM STARTED BY                               xiutinc
 ***** **    ** ** **   PROGRAM PROCESS ID                               2121575
  **** **  *******  **  PROGRAM STARTED IN  /scratch1/xiutinc/CP2K-5305507.pbs02

 CP2K| version string:                                          CP2K version 7.1
 CP2K| source code revision number:                                  git:e635599
 CP2K| cp2kflags: libint fftw3 libxc parallel mpi3 scalapack xsmm               
 CP2K| is freely available from                            https://www.cp2k.org/
 CP2K| Program compiled at                          Wed Aug 12 10:01:37 EDT 2020
 CP2K| Program compiled on                           util02.palmetto.clemson.edu
 CP2K| Program compiled for                          linux-centos8-ivybridge-gcc
 CP2K| Data directory path    /software/spackages/linux-centos8-ivybridge/gcc-8.
 CP2K| Input file name                                             intE08_aq.inp

 GLOBAL| Force Environment number                                              1
 GLOBAL| Basis set file name                                          BASIS_file
 GLOBAL| Potential file name                                     POTENTIALS_file
 GLOBAL| MM Potential file name                                     MM_POTENTIAL
 GLOBAL| Coordinate file name                                    ./intE08_aq.xyz
 GLOBAL| Method name                                                        CP2K
 GLOBAL| Project name                                                  intE08_aq
 GLOBAL| Preferred FFT library                                             FFTW3
 GLOBAL| Preferred diagonalization lib.                                       SL
 GLOBAL| Run type                                                        GEO_OPT
 GLOBAL| All-to-all communication in single precision                          F
 GLOBAL| FFTs using library dependent lengths                                  F
 GLOBAL| Global print level                                                  LOW
 GLOBAL| MPI I/O enabled                                                       T
 GLOBAL| Total number of message passing processes                            24
 GLOBAL| Number of threads for this process                                    1
 GLOBAL| This output is from process                                           0
 GLOBAL| CPU model name                Intel(R) Xeon(R) CPU E5-2680 v3 @ 2.50GHz
 GLOBAL| CPUID                                                              1002
 GLOBAL| Compiled for CPUID                                                 1001

 MEMORY| system memory details [Kb]
 MEMORY|                        rank 0           min           max       average
 MEMORY| MemTotal            131661896     131661896     131661896     131661896
 MEMORY| MemFree             125245556     125199356     125245556     125228231
 MEMORY| Buffers                  6516          6516          6516          6516
 MEMORY| Cached                2185188       2185188       2185188       2185188
 MEMORY| Slab                   789212        789212        789212        789212
 MEMORY| SReclaimable           285944        285944        285944        285944
 MEMORY| MemLikelyFree       127723204     127677004     127723204     127705879


 *******************************************************************************
 *******************************************************************************
 **                                                                           **
 **     #####                         ##              ##                      **
 **    ##   ##            ##          ##              ##                      **
 **   ##     ##                       ##            ######                    **
 **   ##     ##  ##   ##  ##   #####  ##  ##   ####   ##    #####    #####    **
 **   ##     ##  ##   ##  ##  ##      ## ##   ##      ##   ##   ##  ##   ##   **
 **   ##  ## ##  ##   ##  ##  ##      ####     ###    ##   ######   ######    **
 **    ##  ###   ##   ##  ##  ##      ## ##      ##   ##   ##       ##        **
 **     #######   #####   ##   #####  ##  ##  ####    ##    #####   ##        **
 **           ##                                                    ##        **
 **                                                                           **
 **                                                ... make the atoms dance   **
 **                                                                           **
 **            Copyright (C) by CP2K developers group (2000 - 2019)           **
 **                                                                           **
 *******************************************************************************


 TOTAL NUMBERS AND MAXIMUM NUMBERS

  Total number of            - Atomic kinds:                                   5
                             - Atoms:                                        654
                             - Shell sets:                                   654
                             - Shells:                                      3165
                             - Primitive Cartesian functions:               3081
                             - Cartesian basis functions:                   8687
                             - Spherical basis functions:                   8083

  Maximum angular momentum of- Orbital basis functions:                        3
                             - Local part of the GTH pseudopotential:          2
                             - Non-local part of the GTH pseudopotential:      3


 SCF PARAMETERS         Density guess:                                   RESTART
                        --------------------------------------------------------
                        max_scf:                                             500
                        max_scf_history:                                       0
                        max_diis:                                              4
                        --------------------------------------------------------
                        eps_scf:                                        1.00E-06
                        eps_scf_history:                                0.00E+00
                        eps_diis:                                       1.00E-01
                        eps_eigval:                                     1.00E-05
                        --------------------------------------------------------
                        level_shift [a.u.]:                                 0.00
                        --------------------------------------------------------
                        Outer loop SCF in use 
                        No variables optimised in outer loop
                        eps_scf                                         1.00E-06
                        max_scf                                               50
                        No outer loop optimization
                        step_size                                       5.00E-01

 BFGS| Use rational function optimization for step estimation:                NO
 BFGS| Use model Hessian for initial guess:                                  YES
 BFGS| Restart Hessian:                                                       NO
 BFGS| Trust radius:                                                       0.472

 *******************************************************************************
 ***                     STARTING GEOMETRY OPTIMIZATION                      ***
 ***                                   BFGS                                  ***
 *******************************************************************************

 Number of electrons:                                                       3278
 Number of occupied orbitals:                                               1639
 Number of molecular orbitals:                                              1639

 Number of orbital functions:                                               8083
 Number of independent orbital functions:                                   8083

 Extrapolation method: initial_guess

 *** WARNING in qs_initial_guess.F:280 :: User requested to restart the   ***
 *** wavefunction from the file named: intE08_aq-RESTART.wfn. This file   ***
 *** does not exist. Please check the existence of the file or change     ***
 *** properly the value of the keyword WFN_RESTART_FILE_NAME. Calculation ***
 *** continues using ATOMIC GUESS.                                        ***



 SCF WAVEFUNCTION OPTIMIZATION

  ----------------------------------- OT ---------------------------------------
  Minimizer      : CG                  : conjugate gradient
  Preconditioner : FULL_ALL            : diagonalization, state selective
  Precond_solver : DEFAULT
  Line search    : 2PNT                : 2 energies, one gradient
  stepsize       :    0.15000000                  energy_gap     :    0.00100000
  eps_taylor     :   0.10000E-15                  max_taylor     :             4
  ----------------------------------- OT ---------------------------------------

  Step     Update method      Time    Convergence         Total energy    Change
  ------------------------------------------------------------------------------
     1 OT CG       0.15E+00   38.3     0.01617752     -7185.9105997925 -7.19E+03
     2 OT LS       0.63E-01    4.2                    -7085.1259182585
     3 OT CG       0.63E-01   10.9     0.07360878     -7108.1742715083  7.77E+01
     4 OT LS       0.28E-01    4.2                    -6627.4823192644
     5 OT CG       0.28E-01   11.1     0.11833701     -6794.4522496786  3.14E+02
     6 OT LS       0.15E-01    4.2                    -6933.6080442429
     7 OT CG       0.15E-01   10.9     0.06037491     -7040.0123907367 -2.46E+02
     8 OT LS       0.88E-02    4.2                    -7141.1872042707
     9 OT CG       0.88E-02   10.9     0.01680677     -7177.4696203342 -1.37E+02
    10 OT LS       0.24E-01    4.2                    -7200.1360513244
    11 OT CG       0.24E-01   10.9     0.01757715     -7210.6187894538 -3.31E+01
    12 OT LS       0.27E-01    4.2                    -7254.4454765722
    13 OT CG       0.27E-01   10.9     0.01447423     -7255.7496962559 -4.51E+01
    14 OT LS       0.15E-01    4.2                    -7263.9795141713
    15 OT CG       0.15E-01   10.9     0.01065793     -7274.1547033498 -1.84E+01
    16 OT LS       0.53E-01    4.2                    -7292.2942002218
    17 OT CG       0.53E-01   10.9     0.01865860     -7296.7460231900 -2.26E+01
    18 OT LS       0.86E-03    4.2                    -6566.5036706226
    19 OT CG       0.86E-03   10.9     0.01920745     -7297.0002017814 -2.54E-01
    20 OT LS       0.34E-02    4.2                    -7300.9836119763
    21 OT CG       0.34E-02   11.0     0.01153549     -7310.3167559893 -1.33E+01
    22 OT LS       0.11E-01    4.2                    -7315.4181090262
    23 OT CG       0.11E-01   10.9     0.00561995     -7320.4664682890 -1.01E+01
    24 OT LS       0.43E-01    4.2                    -7324.7233626634
    25 OT CG       0.43E-01   13.4     0.00594239     -7330.7628384161 -1.03E+01
    26 OT LS       0.46E-01    4.2                    -7342.2541001360
    27 OT CG       0.46E-01   10.9     0.00481005     -7342.4998799131 -1.17E+01
    28 OT LS       0.46E-01    4.2                    -7350.2837132467
    29 OT CG       0.46E-01   10.9     0.00522477     -7350.2889519734 -7.79E+00
    30 OT LS       0.32E-01    4.2                    -7354.4963068546
    31 OT CG       0.32E-01   10.9     0.00348819     -7355.2403369764 -4.95E+00
    32 OT LS       0.68E-01    4.2                    -7359.1741871288
    33 OT CG       0.68E-01   10.9     0.00242431     -7360.9866941491 -5.75E+00
    34 OT LS       0.80E-01    4.2                    -7364.2622760046
    35 OT CG       0.80E-01   10.9     0.00364538     -7364.2437587529 -3.26E+00
    36 OT LS       0.38E-01    4.2                    -7363.7485479534
    37 OT CG       0.38E-01   11.0     0.00289311     -7366.8787521247 -2.63E+00
    38 OT LS       0.41E-01    4.2                    -7369.1208043288
    39 OT CG       0.41E-01   10.9     0.00239036     -7369.1538816233 -2.28E+00
    40 OT LS       0.44E-01    4.2                    -7370.9390604638
    41 OT CG       0.44E-01   18.7     0.00262491     -7370.9336995703 -1.78E+00
    42 OT LS       0.44E-01    4.5                    -7372.7834332178
    43 OT CG       0.44E-01   10.9     0.00263498     -7372.7836604925 -1.85E+00
    44 OT LS       0.31E-01    4.2                    -7373.9586032190
    45 OT CG       0.31E-01   10.9     0.00194823     -7374.1422601812 -1.36E+00
    46 OT LS       0.11E+00    4.2                    -7375.4936917596
    47 OT CG       0.11E+00   10.9     0.00307257     -7376.5376052290 -2.40E+00
    48 OT LS       0.31E-01    4.2                    -7369.4821623833
    49 OT CG       0.31E-01   10.9     0.00311278     -7378.1110199029 -1.57E+00
    50 OT LS       0.31E-01    4.2                    -7380.1059021141
    51 OT CG       0.31E-01   11.1     0.00188014     -7380.0994261540 -1.99E+00
    52 OT LS       0.59E-01    4.2                    -7381.2254469362
    53 OT CG       0.59E-01   10.9     0.00161615     -7381.4684083676 -1.37E+00
    54 OT LS       0.54E-01    4.2                    -7382.2375852324
    55 OT CG       0.54E-01   10.9     0.00163992     -7382.2405633964 -7.72E-01
    56 OT LS       0.70E-01    4.2                    -7383.4296203279
    57 OT CG       0.70E-01   10.9     0.00176159     -7383.5288102620 -1.29E+00
    58 OT LS       0.59E-01    4.2                    -7384.8103740250
    59 OT CG       0.59E-01   10.9     0.00183080     -7384.8759143821 -1.35E+00
    60 OT LS       0.77E-01    4.2                    -7386.4293046031
    61 OT CG       0.77E-01   10.9     0.00243568     -7386.4941440016 -1.62E+00
    62 OT LS       0.57E-01    4.2                    -7388.3948594977
    63 OT CG       0.57E-01   10.9     0.00216040     -7388.5363567923 -2.04E+00
    64 OT LS       0.77E-01    4.2                    -7390.8095127155
    65 OT CG       0.77E-01   10.9     0.00207896     -7390.8890831311 -2.35E+00
    66 OT LS       0.53E-01    4.2                    -7391.9295860869
    67 OT CG       0.53E-01   11.2     0.00179955     -7392.1877842961 -1.30E+00
    68 OT LS       0.59E-01    4.2                    -7393.4514268207
    69 OT CG       0.59E-01   10.9     0.00137484     -7393.4850490726 -1.30E+00
    70 OT LS       0.76E-01    4.2                    -7394.4603760579
    71 OT CG       0.76E-01   10.9     0.00124385     -7394.4945472661 -1.01E+00
    72 OT LS       0.99E-01    4.2                    -7395.3940727929
    73 OT CG       0.99E-01   10.9     0.00154991     -7395.4503637703 -9.56E-01
    74 OT LS       0.70E-01    4.2                    -7396.3859069028
    75 OT CG       0.70E-01   10.9     0.00135836     -7396.5332409513 -1.08E+00
    76 OT LS       0.93E-01    4.2                    -7397.6145668428
    77 OT CG       0.93E-01   10.9     0.00137293     -7397.6555909113 -1.12E+00
    78 OT LS       0.79E-01    4.2                    -7398.5362177605
    79 OT CG       0.79E-01   10.9     0.00155662     -7398.5667582970 -9.11E-01
    80 OT LS       0.67E-01    4.2                    -7399.6072672098
    81 OT CG       0.67E-01   10.9     0.00119005     -7399.6256419834 -1.06E+00
    82 OT LS       0.10E+00    4.2                    -7400.4899896062
    83 OT CG       0.10E+00   11.1     0.00119765     -7400.5815721808 -9.56E-01
    84 OT LS       0.86E-01    4.2                    -7401.3285448860
    85 OT CG       0.86E-01   10.9     0.00123963     -7401.3500323461 -7.68E-01
    86 OT LS       0.76E-01    4.2                    -7402.1201850589
    87 OT CG       0.76E-01   10.9     0.00106574     -7402.1272535069 -7.77E-01
    88 OT LS       0.94E-01    4.2                    -7402.8210097282
    89 OT CG       0.94E-01   10.9     0.00103680     -7402.8373844475 -7.10E-01
    90 OT LS       0.94E-01    4.2                    -7403.4767883026
    91 OT CG       0.94E-01   10.9     0.00113978     -7403.4767504676 -6.39E-01
    92 OT LS       0.81E-01    4.2                    -7404.1495733040
    93 OT CG       0.81E-01   10.9     0.00097505     -7404.1614926392 -6.85E-01
    94 OT LS       0.96E-01    4.2                    -7404.7649668936
    95 OT CG       0.96E-01   10.9     0.00096756     -7404.7796053363 -6.18E-01
    96 OT LS       0.86E-01    4.2                    -7405.2968565357
    97 OT CG       0.86E-01   10.9     0.00097646     -7405.3071002832 -5.27E-01
    98 OT LS       0.89E-01    4.2                    -7405.8620644964
    99 OT CG       0.89E-01   11.1     0.00092828     -7405.8631171564 -5.56E-01
   100 OT LS       0.80E-01    4.2                    -7406.3198565533
   101 OT CG       0.80E-01   10.9     0.00086845     -7406.3248761129 -4.62E-01
   102 OT LS       0.90E-01    4.2                    -7406.7723028770
   103 OT CG       0.90E-01   11.8     0.00086628     -7406.7768276431 -4.52E-01
   104 OT LS       0.84E-01    4.2                    -7407.1842361377
   105 OT CG       0.84E-01   10.9     0.00088844     -7407.1870000393 -4.10E-01
   106 OT LS       0.79E-01    4.2                    -7407.5999731398
   107 OT CG       0.79E-01   10.9     0.00079462     -7407.6008061395 -4.14E-01
   108 OT LS       0.90E-01    4.2                    -7407.9750943839
   109 OT CG       0.90E-01   10.9     0.00078144     -7407.9803423351 -3.80E-01
   110 OT LS       0.88E-01    4.2                    -7408.3349148229
   111 OT CG       0.88E-01   10.9     0.00078183     -7408.3352814962 -3.55E-01
   112 OT LS       0.87E-01    4.2                    -7408.6858047341
   113 OT CG       0.87E-01   10.9     0.00077151     -7408.6858205352 -3.51E-01
   114 OT LS       0.83E-01    4.2                    -7409.0123617838
   115 OT CG       0.83E-01   11.0     0.00072096     -7409.0130437223 -3.27E-01
   116 OT LS       0.87E-01    4.2                    -7409.3126099695
   117 OT CG       0.87E-01   10.9     0.00070671     -7409.3131126143 -3.00E-01
   118 OT LS       0.86E-01    4.7                    -7409.5985787705
   119 OT CG       0.86E-01   17.0     0.00070436     -7409.5985924254 -2.85E-01
   120 OT LS       0.85E-01    4.3                    -7409.8774238889
   121 OT CG       0.85E-01   10.9     0.00068363     -7409.8774722507 -2.79E-01
   122 OT LS       0.85E-01    4.2                    -7410.1401456246
   123 OT CG       0.85E-01   10.9     0.00064562     -7410.1401420156 -2.63E-01
   124 OT LS       0.90E-01    4.2                    -7410.3887056861
   125 OT CG       0.90E-01   10.9     0.00063856     -7410.3894790645 -2.49E-01
   126 OT LS       0.88E-01    4.2                    -7410.6264620323
   127 OT CG       0.88E-01   10.9     0.00062896     -7410.6266456729 -2.37E-01
   128 OT LS       0.86E-01    4.2                    -7410.8514225691
   129 OT CG       0.86E-01   10.9     0.00061566     -7410.8515154451 -2.25E-01
   130 OT LS       0.84E-01    4.4                    -7411.0618460294
   131 OT CG       0.84E-01   10.9     0.00058161     -7411.0619699886 -2.10E-01
   132 OT LS       0.89E-01    4.2                    -7411.2607403739
   133 OT CG       0.89E-01   10.9     0.00057457     -7411.2613438478 -1.99E-01
   134 OT LS       0.87E-01    4.2                    -7411.4506367774
   135 OT CG       0.87E-01   10.9     0.00056074     -7411.4507799148 -1.89E-01
   136 OT LS       0.87E-01    4.2                    -7411.6324073687
   137 OT CG       0.87E-01   10.9     0.00054913     -7411.6324214751 -1.82E-01
   138 OT LS       0.85E-01    4.2                    -7411.8025212043
   139 OT CG       0.85E-01   10.9     0.00052693     -7411.8026142006 -1.70E-01
   140 OT LS       0.89E-01    4.2                    -7411.9661656638
   141 OT CG       0.89E-01   10.9     0.00051789     -7411.9664493475 -1.64E-01
   142 OT LS       0.87E-01    4.2                    -7412.1211853861
   143 OT CG       0.87E-01   10.9     0.00050994     -7412.1212667824 -1.55E-01
   144 OT LS       0.87E-01    4.2                    -7412.2708237163
   145 OT CG       0.87E-01   10.9     0.00049927     -7412.2708245592 -1.50E-01
   146 OT LS       0.86E-01    4.3                    -7412.4122269266
   147 OT CG       0.86E-01   10.9     0.00048353     -7412.4122518910 -1.41E-01
   148 OT LS       0.88E-01    4.2                    -7412.5484504059
   149 OT CG       0.88E-01   10.9     0.00047125     -7412.5485417409 -1.36E-01
   150 OT LS       0.88E-01    4.2                    -7412.6783682518
   151 OT CG       0.88E-01   10.9     0.00046184     -7412.6783690328 -1.30E-01
   152 OT LS       0.89E-01    4.2                    -7412.8039929171
   153 OT CG       0.89E-01   10.9     0.00045323     -7412.8040005164 -1.26E-01
   154 OT LS       0.87E-01    4.2                    -7412.9227186954
   155 OT CG       0.87E-01   10.9     0.00044155     -7412.9227590834 -1.19E-01
   156 OT LS       0.88E-01    4.2                    -7413.0368085000
   157 OT CG       0.88E-01   10.9     0.00043047     -7413.0368238316 -1.14E-01
   158 OT LS       0.89E-01    4.2                    -7413.1457963870
   159 OT CG       0.89E-01   10.9     0.00042164     -7413.1457990925 -1.09E-01
   160 OT LS       0.90E-01    4.2                    -7413.2514243636
   161 OT CG       0.90E-01   10.9     0.00041496     -7413.2514362081 -1.06E-01
   162 OT LS       0.89E-01    4.3                    -7413.3524364364
   163 OT CG       0.89E-01   10.9     0.00040598     -7413.3524525993 -1.01E-01
   164 OT LS       0.88E-01    4.2                    -7413.4490676097
   165 OT CG       0.88E-01   10.9     0.00039670     -7413.4490676840 -9.66E-02
   166 OT LS       0.88E-01    4.2                    -7413.5411546292
   167 OT CG       0.88E-01   10.9     0.00038931     -7413.5411549227 -9.21E-02
   168 OT LS       0.89E-01    4.2                    -7413.6303290667
   169 OT CG       0.89E-01   10.9     0.00038140     -7413.6303320299 -8.92E-02
   170 OT LS       0.89E-01    4.2                    -7413.7164819496
   171 OT CG       0.89E-01   10.9     0.00037336     -7413.7164857780 -8.62E-02
   172 OT LS       0.89E-01    4.2                    -7413.7990638695
   173 OT CG       0.89E-01   10.9     0.00036479     -7413.7990638687 -8.26E-02
   174 OT LS       0.90E-01    4.2                    -7413.8783528051
   175 OT CG       0.90E-01   10.9     0.00035801     -7413.8783554922 -7.93E-02
   176 OT LS       0.90E-01    4.2                    -7413.9551768800
   177 OT CG       0.90E-01   10.9     0.00035111     -7413.9551797782 -7.68E-02
   178 OT LS       0.91E-01    4.4                    -7414.0291395924
   179 OT CG       0.91E-01   10.9     0.00034518     -7414.0291396865 -7.40E-02
   180 OT LS       0.90E-01    4.2                    -7414.1004552034
   181 OT CG       0.90E-01   11.7     0.00033890     -7414.1004555984 -7.13E-02
   182 OT LS       0.90E-01    4.2                    -7414.1691649839
   183 OT CG       0.90E-01   10.9     0.00033327     -7414.1691650092 -6.87E-02
   184 OT LS       0.90E-01    4.2                    -7414.2355495747
   185 OT CG       0.90E-01   10.9     0.00032821     -7414.2355496142 -6.64E-02
   186 OT LS       0.90E-01    4.2                    -7414.2995931586
   187 OT CG       0.90E-01   11.1     0.00032244     -7414.2995948450 -6.40E-02
   188 OT LS       0.90E-01    4.2                    -7414.3615429633
   189 OT CG       0.90E-01   10.9     0.00031612     -7414.3615432666 -6.19E-02
   190 OT LS       0.90E-01    4.2                    -7414.4213161214
   191 OT CG       0.90E-01   10.9     0.00031038     -7414.4213169804 -5.98E-02
   192 OT LS       0.90E-01    4.2                    -7414.4790029436
   193 OT CG       0.90E-01   10.9     0.00030522     -7414.4790030156 -5.77E-02
   194 OT LS       0.90E-01    4.3                    -7414.5347117123
   195 OT CG       0.90E-01   10.9     0.00029967     -7414.5347117868 -5.57E-02
   196 OT LS       0.91E-01    5.4                    -7414.5886259605
   197 OT CG       0.91E-01   17.0     0.00029482     -7414.5886268704 -5.39E-02
   198 OT LS       0.90E-01    4.3                    -7414.6404996061
   199 OT CG       0.90E-01   10.9     0.00028980     -7414.6405014595 -5.19E-02
   200 OT LS       0.90E-01    4.2                    -7414.6905281182
   201 OT CG       0.90E-01   10.8     0.00028474     -7414.6905283043 -5.00E-02
   202 OT LS       0.91E-01    4.2                    -7414.7391561701
   203 OT CG       0.91E-01   10.9     0.00027898     -7414.7391585600 -4.86E-02
   204 OT LS       0.92E-01    4.2                    -7414.7863989478
   205 OT CG       0.92E-01   10.9     0.00027442     -7414.7864058513 -4.72E-02
   206 OT LS       0.91E-01    4.2                    -7414.8319731441
   207 OT CG       0.91E-01   10.9     0.00026956     -7414.8319736187 -4.56E-02
   208 OT LS       0.92E-01    4.2                    -7414.8761324918
   209 OT CG       0.92E-01   11.1     0.00026492     -7414.8761333353 -4.42E-02
   210 OT LS       0.92E-01    4.2                    -7414.9189522554
   211 OT CG       0.92E-01   10.9     0.00026083     -7414.9189529294 -4.28E-02
   212 OT LS       0.92E-01    4.2                    -7414.9604278590
   213 OT CG       0.92E-01   10.9     0.00025692     -7414.9604278851 -4.15E-02
   214 OT LS       0.92E-01    4.2                    -7415.0004821484
   215 OT CG       0.92E-01   10.9     0.00025326     -7415.0004829599 -4.01E-02
   216 OT LS       0.92E-01    4.2                    -7415.0394907630
   217 OT CG       0.92E-01   10.9     0.00024903     -7415.0394909670 -3.90E-02
   218 OT LS       0.92E-01    4.2                    -7415.0772864732
   219 OT CG       0.92E-01   10.9     0.00024510     -7415.0772866392 -3.78E-02
   220 OT LS       0.92E-01    4.2                    -7415.1140872314
   221 OT CG       0.92E-01   10.9     0.00024148     -7415.1140882058 -3.68E-02
   222 OT LS       0.92E-01    4.2                    -7415.1495503447
   223 OT CG       0.92E-01   10.9     0.00023775     -7415.1495521812 -3.55E-02
   224 OT LS       0.92E-01    4.2                    -7415.1840148102
   225 OT CG       0.92E-01   10.9     0.00023432     -7415.1840150344 -3.45E-02
   226 OT LS       0.92E-01    4.2                    -7415.2176480768
   227 OT CG       0.92E-01   10.9     0.00023025     -7415.2176488434 -3.36E-02
   228 OT LS       0.93E-01    4.2                    -7415.2503680522
   229 OT CG       0.93E-01   10.9     0.00022717     -7415.2503698943 -3.27E-02
   230 OT LS       0.93E-01    4.2                    -7415.2822089259
   231 OT CG       0.93E-01   10.9     0.00022405     -7415.2822089320 -3.18E-02
   232 OT LS       0.93E-01    4.2                    -7415.3130032774
   233 OT CG       0.93E-01   10.9     0.00022151     -7415.3130042319 -3.08E-02
   234 OT LS       0.92E-01    4.2                    -7415.3430485191
   235 OT CG       0.92E-01   10.9     0.00021847     -7415.3430486220 -3.00E-02
   236 OT LS       0.92E-01    4.2                    -7415.3722668983
   237 OT CG       0.92E-01   10.9     0.00021536     -7415.3722669014 -2.92E-02
   238 OT LS       0.93E-01    4.2                    -7415.4008716654
   239 OT CG       0.93E-01   10.9     0.00021281     -7415.4008732836 -2.86E-02
   240 OT LS       0.92E-01    4.2                    -7415.4285842976
   241 OT CG       0.92E-01   10.9     0.00020999     -7415.4285859960 -2.77E-02
   242 OT LS       0.93E-01    4.2                    -7415.4557890460
   243 OT CG       0.93E-01   10.9     0.00020739     -7415.4557909156 -2.72E-02
   244 OT LS       0.92E-01    4.2                    -7415.4820947888
   245 OT CG       0.92E-01   10.9     0.00020471     -7415.4820968757 -2.63E-02
   246 OT LS       0.93E-01    4.2                    -7415.5078051382
   247 OT CG       0.93E-01   10.9     0.00020210     -7415.5078053765 -2.57E-02
   248 OT LS       0.93E-01    4.2                    -7415.5328336491
   249 OT CG       0.93E-01   10.9     0.00019933     -7415.5328336770 -2.50E-02
   250 OT LS       0.93E-01    4.2                    -7415.5572302253
   251 OT CG       0.93E-01   10.9     0.00019699     -7415.5572303397 -2.44E-02
   252 OT LS       0.92E-01    4.2                    -7415.5809739163
   253 OT CG       0.92E-01   10.9     0.00019414     -7415.5809742245 -2.37E-02
   254 OT LS       0.93E-01    4.2                    -7415.6041616687
   255 OT CG       0.93E-01   10.9     0.00019159     -7415.6041623501 -2.32E-02
   256 OT LS       0.93E-01    4.2                    -7415.6268261016
   257 OT CG       0.93E-01   11.0     0.00018957     -7415.6268263987 -2.27E-02
   258 OT LS       0.93E-01    4.2                    -7415.6489010899
   259 OT CG       0.93E-01   11.9     0.00018707     -7415.6489016274 -2.21E-02
   260 OT LS       0.93E-01    4.2                    -7415.6705045244
   261 OT CG       0.93E-01   10.9     0.00018457     -7415.6705050559 -2.16E-02
   262 OT LS       0.94E-01    4.2                    -7415.6916582550
   263 OT CG       0.94E-01   10.9     0.00018213     -7415.6916589237 -2.12E-02
   264 OT LS       0.94E-01    4.2                    -7415.7122686420
   265 OT CG       0.94E-01   10.9     0.00018015     -7415.7122686474 -2.06E-02
   266 OT LS       0.94E-01    4.2                    -7415.7324199427
   267 OT CG       0.94E-01   10.9     0.00017778     -7415.7324199457 -2.02E-02
   268 OT LS       0.94E-01    4.2                    -7415.7520991564
   269 OT CG       0.94E-01   10.9     0.00017543     -7415.7520993129 -1.97E-02
   270 OT LS       0.94E-01    4.2                    -7415.7712847590
   271 OT CG       0.94E-01   10.9     0.00017344     -7415.7712847794 -1.92E-02
   272 OT LS       0.94E-01    4.2                    -7415.7899595691
   273 OT CG       0.94E-01   11.1     0.00017167     -7415.7899599083 -1.87E-02
   274 OT LS       0.93E-01    5.6                    -7415.8081213743
   275 OT CG       0.93E-01   16.4     0.00016950     -7415.8081223099 -1.82E-02
   276 OT LS       0.93E-01    4.3                    -7415.8258465643
   277 OT CG       0.93E-01   10.9     0.00016711     -7415.8258465877 -1.77E-02
   278 OT LS       0.94E-01    4.2                    -7415.8431830652
   279 OT CG       0.94E-01   10.9     0.00016516     -7415.8431837291 -1.73E-02
   280 OT LS       0.93E-01    4.2                    -7415.8600670665
   281 OT CG       0.93E-01   10.9     0.00016318     -7415.8600672393 -1.69E-02
   282 OT LS       0.94E-01    4.2                    -7415.8765644746
   283 OT CG       0.94E-01   10.9     0.00016130     -7415.8765644948 -1.65E-02
   284 OT LS       0.94E-01    4.2                    -7415.8926978302
   285 OT CG       0.94E-01   10.9     0.00015900     -7415.8926978459 -1.61E-02
   286 OT LS       0.94E-01    4.2                    -7415.9084250447
   287 OT CG       0.94E-01   10.9     0.00015750     -7415.9084251984 -1.57E-02
   288 OT LS       0.93E-01    4.3                    -7415.9237528123
   289 OT CG       0.93E-01   10.9     0.00015586     -7415.9237535573 -1.53E-02
   290 OT LS       0.93E-01    4.2                    -7415.9386704524
   291 OT CG       0.93E-01   10.9     0.00015436     -7415.9386710144 -1.49E-02
   292 OT LS       0.93E-01    4.2                    -7415.9533061357
   293 OT CG       0.93E-01   10.9     0.00015218     -7415.9533061389 -1.46E-02
   294 OT LS       0.94E-01    4.2                    -7415.9676620059
   295 OT CG       0.94E-01   10.9     0.00015015     -7415.9676632104 -1.44E-02
   296 OT LS       0.95E-01    4.2                    -7415.9817856404
   297 OT CG       0.95E-01   10.9     0.00014878     -7415.9817871001 -1.41E-02
   298 OT LS       0.94E-01    4.2                    -7415.9955738679
   299 OT CG       0.94E-01   10.9     0.00014718     -7415.9955743351 -1.38E-02
   300 OT LS       0.94E-01    4.2                    -7416.0091184097
   301 OT CG       0.94E-01   10.9     0.00014588     -7416.0091186331 -1.35E-02
   302 OT LS       0.94E-01    4.2                    -7416.0222998868
   303 OT CG       0.94E-01   10.9     0.00014434     -7416.0223010335 -1.32E-02
   304 OT LS       0.93E-01    4.3                    -7416.0351888583
   305 OT CG       0.93E-01   10.9     0.00014267     -7416.0351888927 -1.29E-02
   306 OT LS       0.94E-01    4.2                    -7416.0478629619
   307 OT CG       0.94E-01   10.9     0.00014115     -7416.0478634877 -1.27E-02
   308 OT LS       0.94E-01    4.2                    -7416.0603297580
   309 OT CG       0.94E-01   10.9     0.00013951     -7416.0603300875 -1.25E-02
   310 OT LS       0.95E-01    4.2                    -7416.0725685756
   311 OT CG       0.95E-01   10.9     0.00013789     -7416.0725688752 -1.22E-02
   312 OT LS       0.95E-01    4.2                    -7416.0845893460
   313 OT CG       0.95E-01   10.9     0.00013642     -7416.0845896746 -1.20E-02
   314 OT LS       0.96E-01    4.2                    -7416.0963748841
   315 OT CG       0.96E-01   10.9     0.00013538     -7416.0963749096 -1.18E-02
   316 OT LS       0.95E-01    4.2                    -7416.1078841979
   317 OT CG       0.95E-01   10.9     0.00013419     -7416.1078849970 -1.15E-02
   318 OT LS       0.94E-01    4.2                    -7416.1191202089
   319 OT CG       0.94E-01   10.9     0.00013283     -7416.1191206384 -1.12E-02
   320 OT LS       0.94E-01    4.3                    -7416.1301182134
   321 OT CG       0.94E-01   10.9     0.00013140     -7416.1301182292 -1.10E-02
   322 OT LS       0.94E-01    4.2                    -7416.1409095383
   323 OT CG       0.94E-01   10.9     0.00013018     -7416.1409096118 -1.08E-02
   324 OT LS       0.94E-01    4.2                    -7416.1514880852
   325 OT CG       0.94E-01   10.9     0.00012877     -7416.1514881040 -1.06E-02
   326 OT LS       0.95E-01    4.2                    -7416.1618844814
   327 OT CG       0.95E-01   10.9     0.00012726     -7416.1618847022 -1.04E-02
   328 OT LS       0.95E-01    4.2                    -7416.1720438690
   329 OT CG       0.95E-01   10.9     0.00012600     -7416.1720438717 -1.02E-02
   330 OT LS       0.94E-01    4.2                    -7416.1819750422
   331 OT CG       0.94E-01   10.9     0.00012473     -7416.1819751325 -9.93E-03
   332 OT LS       0.95E-01    4.2                    -7416.1917236528
   333 OT CG       0.95E-01   10.9     0.00012360     -7416.1917236806 -9.75E-03
   334 OT LS       0.94E-01    4.2                    -7416.2012426463
   335 OT CG       0.94E-01   10.9     0.00012260     -7416.2012429353 -9.52E-03
   336 OT LS       0.94E-01    4.3                    -7416.2105782636
   337 OT CG       0.94E-01   12.4     0.00012107     -7416.2105783594 -9.34E-03
   338 OT LS       0.95E-01    4.2                    -7416.2197736616
   339 OT CG       0.95E-01   10.9     0.00011999     -7416.2197745586 -9.20E-03
   340 OT LS       0.95E-01    4.2                    -7416.2287957930
   341 OT CG       0.95E-01   10.9     0.00011912     -7416.2287958067 -9.02E-03
   342 OT LS       0.94E-01    4.2                    -7416.2376371815
   343 OT CG       0.94E-01   10.9     0.00011807     -7416.2376374534 -8.84E-03
   344 OT LS       0.94E-01    4.2                    -7416.2463127405
   345 OT CG       0.94E-01   10.9     0.00011687     -7416.2463127542 -8.68E-03
   346 OT LS       0.94E-01    4.2                    -7416.2548525869
   347 OT CG       0.94E-01   10.9     0.00011576     -7416.2548527709 -8.54E-03
   348 OT LS       0.95E-01    4.2                    -7416.2632429062
   349 OT CG       0.95E-01   10.9     0.00011491     -7416.2632429201 -8.39E-03
   350 OT LS       0.94E-01    4.2                    -7416.2714714909
   351 OT CG       0.94E-01   11.1     0.00011393     -7416.2714716700 -8.23E-03
   352 OT LS       0.94E-01    5.2                    -7416.2795752301
   353 OT CG       0.94E-01   16.4     0.00011291     -7416.2795752565 -8.10E-03
   354 OT LS       0.94E-01    4.3                    -7416.2875395994
   355 OT CG       0.94E-01   10.9     0.00011182     -7416.2875396016 -7.96E-03
   356 OT LS       0.95E-01    4.2                    -7416.2953745529
   357 OT CG       0.95E-01   10.9     0.00011101     -7416.2953746226 -7.84E-03
   358 OT LS       0.94E-01    4.2                    -7416.3030855412
   359 OT CG       0.94E-01   10.9     0.00010985     -7416.3030855550 -7.71E-03
   360 OT LS       0.95E-01    4.2                    -7416.3106580489
   361 OT CG       0.95E-01   10.9     0.00010895     -7416.3106581121 -7.57E-03
   362 OT LS       0.95E-01    4.2                    -7416.3181035055
   363 OT CG       0.95E-01   10.9     0.00010794     -7416.3181035084 -7.45E-03
   364 OT LS       0.95E-01    4.2                    -7416.3254071601
   365 OT CG       0.95E-01   10.9     0.00010700     -7416.3254071631 -7.30E-03
   366 OT LS       0.95E-01    4.2                    -7416.3325888434
   367 OT CG       0.95E-01   11.0     0.00010617     -7416.3325888476 -7.18E-03
   368 OT LS       0.94E-01    4.2                    -7416.3396339292
   369 OT CG       0.94E-01   10.9     0.00010501     -7416.3396340274 -7.05E-03
   370 OT LS       0.95E-01    4.2                    -7416.3465795405
   371 OT CG       0.95E-01   10.9     0.00010413     -7416.3465799481 -6.95E-03
   372 OT LS       0.95E-01    4.2                    -7416.3533979844
   373 OT CG       0.95E-01   10.9     0.00010318     -7416.3533980036 -6.82E-03
   374 OT LS       0.95E-01    4.2                    -7416.3601281875
   375 OT CG       0.95E-01   10.9     0.00010225     -7416.3601283877 -6.73E-03
   376 OT LS       0.95E-01    4.2                    -7416.3667318063
   377 OT CG       0.95E-01   10.9     0.00010138     -7416.3667318137 -6.60E-03
   378 OT LS       0.95E-01    4.2                    -7416.3731998728
   379 OT CG       0.95E-01   10.9     0.00010102     -7416.3731999601 -6.47E-03
   380 OT LS       0.94E-01    4.2                    -7416.3795477990
   381 OT CG       0.94E-01   10.9     0.00010003     -7416.3795486436 -6.35E-03
   382 OT LS       0.94E-01    4.2                    -7416.3857967615
   383 OT CG       0.94E-01   11.0     0.00009945     -7416.3857968503 -6.25E-03
   384 OT LS       0.94E-01    4.2                    -7416.3919782156
   385 OT CG       0.94E-01   10.9     0.00009851     -7416.3919782198 -6.18E-03
   386 OT LS       0.95E-01    4.2                    -7416.3980683700
   387 OT CG       0.95E-01   10.9     0.00009774     -7416.3980684727 -6.09E-03
   388 OT LS       0.95E-01    4.2                    -7416.4040880485
   389 OT CG       0.95E-01   10.9     0.00009711     -7416.4040881356 -6.02E-03
   390 OT LS       0.95E-01    4.2                    -7416.4099990581
   391 OT CG       0.95E-01   10.9     0.00009631     -7416.4099992166 -5.91E-03
   392 OT LS       0.95E-01    4.2                    -7416.4158362589
   393 OT CG       0.95E-01   10.9     0.00009539     -7416.4158363566 -5.84E-03
   394 OT LS       0.95E-01    4.2                    -7416.4215795751
   395 OT CG       0.95E-01   10.9     0.00009465     -7416.4215796202 -5.74E-03
   396 OT LS       0.95E-01    4.2                    -7416.4272290779
   397 OT CG       0.95E-01   10.9     0.00009404     -7416.4272290839 -5.65E-03
   398 OT LS       0.95E-01    4.2                    -7416.4327840202
   399 OT CG       0.95E-01   11.1     0.00009328     -7416.4327841049 -5.56E-03
   400 OT LS       0.95E-01    4.2                    -7416.4382584016
   401 OT CG       0.95E-01   10.9     0.00009252     -7416.4382584182 -5.47E-03
   402 OT LS       0.95E-01    4.2                    -7416.4436511761
   403 OT CG       0.95E-01   10.9     0.00009179     -7416.4436511851 -5.39E-03
   404 OT LS       0.95E-01    4.2                    -7416.4489576276
   405 OT CG       0.95E-01   10.9     0.00009126     -7416.4489576292 -5.31E-03
   406 OT LS       0.94E-01    4.2                    -7416.4541646071
   407 OT CG       0.94E-01   10.9     0.00009060     -7416.4541648671 -5.21E-03
   408 OT LS       0.95E-01    4.2                    -7416.4593332577
   409 OT CG       0.95E-01   10.9     0.00008972     -7416.4593335154 -5.17E-03
   410 OT LS       0.95E-01    4.2                    -7416.4644068586
   411 OT CG       0.95E-01   10.9     0.00008924     -7416.4644068622 -5.07E-03
   412 OT LS       0.95E-01    4.2                    -7416.4694212954
   413 OT CG       0.95E-01   10.9     0.00008865     -7416.4694213028 -5.01E-03
   414 OT LS       0.95E-01    4.2                    -7416.4743516924
   415 OT CG       0.95E-01   12.4     0.00008798     -7416.4743517524 -4.93E-03
   416 OT LS       0.95E-01    4.2                    -7416.4792395043
   417 OT CG       0.95E-01   10.9     0.00008727     -7416.4792397144 -4.89E-03
   418 OT LS       0.95E-01    4.2                    -7416.4840484363
   419 OT CG       0.95E-01   10.9     0.00008665     -7416.4840484364 -4.81E-03
   420 OT LS       0.95E-01    4.2                    -7416.4887925049
   421 OT CG       0.95E-01   10.9     0.00008591     -7416.4887925076 -4.74E-03
   422 OT LS       0.96E-01    4.2                    -7416.4934810225
   423 OT CG       0.96E-01   10.9     0.00008521     -7416.4934811522 -4.69E-03
   424 OT LS       0.96E-01    4.2                    -7416.4980967595
   425 OT CG       0.96E-01   10.9     0.00008477     -7416.4980967623 -4.62E-03
   426 OT LS       0.95E-01    4.2                    -7416.5026165352
   427 OT CG       0.95E-01   10.9     0.00008415     -7416.5026170480 -4.52E-03
   428 OT LS       0.95E-01    4.2                    -7416.5070718333
   429 OT CG       0.95E-01   10.9     0.00008361     -7416.5070718333 -4.45E-03
   430 OT LS       0.94E-01    5.8                    -7416.5114332015
   431 OT CG       0.94E-01   16.3     0.00008323     -7416.5114335137 -4.36E-03
   432 OT LS       0.94E-01    4.2                    -7416.5157439229
   433 OT CG       0.94E-01   10.9     0.00008252     -7416.5157439536 -4.31E-03
   434 OT LS       0.94E-01    4.2                    -7416.5199943540
   435 OT CG       0.94E-01   10.9     0.00008184     -7416.5199943990 -4.25E-03
   436 OT LS       0.95E-01    4.2                    -7416.5241950170
   437 OT CG       0.95E-01   10.9     0.00008133     -7416.5241951128 -4.20E-03
   438 OT LS       0.95E-01    4.2                    -7416.5283366405
   439 OT CG       0.95E-01   10.9     0.00008074     -7416.5283366556 -4.14E-03
   440 OT LS       0.95E-01    4.2                    -7416.5324317806
   441 OT CG       0.95E-01   10.9     0.00007998     -7416.5324318277 -4.10E-03
   442 OT LS       0.96E-01    4.2                    -7416.5364788063
   443 OT CG       0.96E-01   10.9     0.00007930     -7416.5364790076 -4.05E-03
   444 OT LS       0.96E-01    4.2                    -7416.5404584521
   445 OT CG       0.96E-01   11.0     0.00007890     -7416.5404584521 -3.98E-03
   446 OT LS       0.95E-01    4.2                    -7416.5443589345
   447 OT CG       0.95E-01   10.9     0.00007834     -7416.5443593182 -3.90E-03
   448 OT LS       0.95E-01    4.2                    -7416.5482218600
   449 OT CG       0.95E-01   10.9     0.00007764     -7416.5482219315 -3.86E-03
   450 OT LS       0.96E-01    4.2                    -7416.5520416847
   451 OT CG       0.96E-01   10.9     0.00007709     -7416.5520418719 -3.82E-03
   452 OT LS       0.95E-01    4.2                    -7416.5557965076
   453 OT CG       0.95E-01   10.9     0.00007676     -7416.5557965432 -3.75E-03
   454 OT LS       0.95E-01    4.2                    -7416.5594954438
   455 OT CG       0.95E-01   10.9     0.00007620     -7416.5594956009 -3.70E-03
   456 OT LS       0.96E-01    4.2                    -7416.5631688697
   457 OT CG       0.96E-01   10.9     0.00007548     -7416.5631690843 -3.67E-03
   458 OT LS       0.96E-01    4.2                    -7416.5668044762
   459 OT CG       0.96E-01   10.9     0.00007504     -7416.5668047559 -3.64E-03
   460 OT LS       0.96E-01    4.2                    -7416.5703692116
   461 OT CG       0.96E-01   11.0     0.00007466     -7416.5703694553 -3.56E-03
   462 OT LS       0.95E-01    4.2                    -7416.5738898520
   463 OT CG       0.95E-01   10.9     0.00007396     -7416.5738898725 -3.52E-03
   464 OT LS       0.96E-01    4.2                    -7416.5773758038
   465 OT CG       0.96E-01   10.9     0.00007366     -7416.5773760889 -3.49E-03
   466 OT LS       0.95E-01    4.2                    -7416.5808067984
   467 OT CG       0.95E-01   10.9     0.00007315     -7416.5808070124 -3.43E-03
   468 OT LS       0.95E-01    4.2                    -7416.5841905249
   469 OT CG       0.95E-01   10.9     0.00007273     -7416.5841905250 -3.38E-03
   470 OT LS       0.96E-01    4.2                    -7416.5875485239
   471 OT CG       0.96E-01   10.9     0.00007219     -7416.5875485724 -3.36E-03
   472 OT LS       0.96E-01    4.2                    -7416.5908630378
   473 OT CG       0.96E-01   10.9     0.00007189     -7416.5908630472 -3.31E-03
   474 OT LS       0.96E-01    4.2                    -7416.5941355216
   475 OT CG       0.96E-01   10.9     0.00007147     -7416.5941355822 -3.27E-03
   476 OT LS       0.95E-01    4.2                    -7416.5973641592
   477 OT CG       0.95E-01   11.1     0.00007109     -7416.5973641696 -3.23E-03
   478 OT LS       0.95E-01    4.2                    -7416.6005500776
   479 OT CG       0.95E-01   10.9     0.00007066     -7416.6005501005 -3.19E-03
   480 OT LS       0.95E-01    4.2                    -7416.6036958106
   481 OT CG       0.95E-01   10.9     0.00007036     -7416.6036958117 -3.15E-03
   482 OT LS       0.95E-01    4.2                    -7416.6067973732
   483 OT CG       0.95E-01   10.9     0.00007004     -7416.6067974745 -3.10E-03
   484 OT LS       0.94E-01    4.2                    -7416.6098626418
   485 OT CG       0.94E-01   10.9     0.00006952     -7416.6098626654 -3.07E-03
   486 OT LS       0.95E-01    4.2                    -7416.6128880513
   487 OT CG       0.95E-01   10.9     0.00006911     -7416.6128880619 -3.03E-03
   488 OT LS       0.94E-01    4.2                    -7416.6158759380
   489 OT CG       0.94E-01   10.9     0.00006857     -7416.6158759395 -2.99E-03
   490 OT LS       0.95E-01    4.2                    -7416.6188291317
   491 OT CG       0.95E-01   10.9     0.00006811     -7416.6188291784 -2.95E-03
   492 OT LS       0.95E-01    4.2                    -7416.6217429367
   493 OT CG       0.95E-01   12.9     0.00006765     -7416.6217429367 -2.91E-03
   494 OT LS       0.95E-01    4.2                    -7416.6246239621
   495 OT CG       0.95E-01   10.9     0.00006724     -7416.6246239764 -2.88E-03
   496 OT LS       0.95E-01    4.2                    -7416.6274727408
   497 OT CG       0.95E-01   10.9     0.00006693     -7416.6274727422 -2.85E-03
   498 OT LS       0.95E-01    4.2                    -7416.6302966944
   499 OT CG       0.95E-01   10.9     0.00006654     -7416.6302966948 -2.82E-03
   500 OT LS       0.95E-01    4.2                    -7416.6330847341

  Leaving inner SCF loop after reaching   500 steps.


  Electronic density on regular grids:      -3277.9999971327        0.0000028673
  Core density on regular grids:             3277.9999998093       -0.0000001907
  Total charge density on r-space grids:        0.0000026766
  Total charge density g-space grids:           0.0000026766

  Overlap energy of the core charge distribution:               0.00000823486568
  Self energy of the core charge distribution:             -19088.11073027204111
  Core Hamiltonian energy:                                   5415.02674700250464
  Hartree energy:                                            7986.01748389696604
  Exchange-correlation energy:                              -1727.44590804715517
  Dispersion energy:                                           -2.12068554928620

  Total energy:                                             -7416.63308473414509

  outer SCF iter =    1 RMS gradient =   0.67E-04 energy =      -7416.6330847341

  ----------------------------------- OT ---------------------------------------
  Minimizer      : CG                  : conjugate gradient
  Preconditioner : FULL_ALL            : diagonalization, state selective
  Precond_solver : DEFAULT
  Line search    : 2PNT                : 2 energies, one gradient
  stepsize       :    0.15000000                  energy_gap     :    0.00100000
  eps_taylor     :   0.10000E-15                  max_taylor     :             4
  ----------------------------------- OT ---------------------------------------

  Step     Update method      Time    Convergence         Total energy    Change
  ------------------------------------------------------------------------------
     1 OT CG       0.15E+00   45.5     0.00045427     -7416.6330847367 -2.79E-03
     2 OT LS       0.25E+00    4.2                    -7416.9193609055
     3 OT CG       0.25E+00   10.9     0.00002762     -7416.9723088263 -3.39E-01
     4 OT LS       0.71E-01    5.1                    -7416.9704483881
     5 OT CG       0.71E-01   15.9     0.00000964     -7416.9726694445 -3.61E-04
     6 OT LS       0.66E-01    4.2                    -7416.9727099768
     7 OT CG       0.66E-01   10.9     0.00000336     -7416.9727102291 -4.08E-05
     8 OT LS       0.13E+00    4.2                    -7416.9727176949
     9 OT CG       0.13E+00   10.9     0.00000124     -7416.9727203087 -1.01E-05
    10 OT LS       0.11E+00    4.2                    -7416.9727213263
    11 OT CG       0.11E+00   10.9     0.00000051     -7416.9727214003 -1.09E-06

  *** SCF run converged in    11 steps ***


  Electronic density on regular grids:      -3277.9999971328        0.0000028672
  Core density on regular grids:             3277.9999998093       -0.0000001907
  Total charge density on r-space grids:        0.0000026765
  Total charge density g-space grids:           0.0000026765

  Overlap energy of the core charge distribution:               0.00000823486568
  Self energy of the core charge distribution:             -19088.11073027204111
  Core Hamiltonian energy:                                   5414.68319854363381
  Hartree energy:                                            7986.07858147852767
  Exchange-correlation energy:                              -1727.50309383595413
  Dispersion energy:                                           -2.12068554928620

  Total energy:                                             -7416.97272140025416

  outer SCF iter =    2 RMS gradient =   0.51E-06 energy =      -7416.9727214003
  outer SCF loop converged in   2 iterations or  511 steps


 ENERGY| Total FORCE_EVAL ( QS ) energy (a.u.):            -7416.972721561010076


 ATOMIC FORCES in [a.u.]

 # Atom   Kind   Element          X              Y              Z
      1      1      Ti          0.00000000     0.00000000     0.00000000
      2      2      Si          0.00000000     0.00000000     0.00000000
      3      2      Si          0.00000000     0.00000000     0.00000000
      4      2      Si          0.00000000     0.00000000     0.00000000
      5      2      Si          0.00000000     0.00000000     0.00000000
      6      2      Si          0.00000000     0.00000000     0.00000000
      7      2      Si          0.00000000     0.00000000     0.00000000
      8      2      Si          0.00000000     0.00000000     0.00000000
      9      2      Si          0.00000000     0.00000000     0.00000000
     10      2      Si          0.00000000     0.00000000     0.00000000
     11      2      Si          0.00000000     0.00000000     0.00000000
     12      2      Si          0.00000000     0.00000000     0.00000000
     13      2      Si          0.00000000     0.00000000     0.00000000
     14      2      Si          0.00000000     0.00000000     0.00000000
     15      2      Si          0.00000000     0.00000000     0.00000000
     16      2      Si          0.00000000     0.00000000     0.00000000
     17      2      Si          0.00000000     0.00000000     0.00000000
     18      2      Si          0.00000000     0.00000000     0.00000000
     19      2      Si          0.00000000     0.00000000     0.00000000
     20      2      Si          0.00000000     0.00000000     0.00000000
     21      2      Si          0.00000000     0.00000000     0.00000000
     22      2      Si          0.00000000     0.00000000     0.00000000
     23      2      Si          0.00000000     0.00000000     0.00000000
     24      2      Si          0.00000000     0.00000000     0.00000000
     25      2      Si          0.00000000     0.00000000     0.00000000
     26      2      Si          0.00000000     0.00000000     0.00000000
     27      2      Si          0.00000000     0.00000000     0.00000000
     28      2      Si          0.00000000     0.00000000     0.00000000
     29      2      Si          0.00000000     0.00000000     0.00000000
     30      2      Si          0.00000000     0.00000000     0.00000000
     31      2      Si          0.00000000     0.00000000     0.00000000
     32      2      Si          0.00000000     0.00000000     0.00000000
     33      2      Si          0.00000000     0.00000000     0.00000000
     34      2      Si          0.00000000     0.00000000     0.00000000
     35      2      Si          0.00000000     0.00000000     0.00000000
     36      2      Si          0.00000000     0.00000000     0.00000000
     37      2      Si          0.00000000     0.00000000     0.00000000
     38      2      Si          0.00000000     0.00000000     0.00000000
     39      2      Si          0.00000000     0.00000000     0.00000000
     40      2      Si          0.00000000     0.00000000     0.00000000
     41      2      Si          0.00000000     0.00000000     0.00000000
     42      2      Si          0.00000000     0.00000000     0.00000000
     43      2      Si          0.00000000     0.00000000     0.00000000
     44      2      Si          0.00000000     0.00000000     0.00000000
     45      2      Si          0.00000000     0.00000000     0.00000000
     46      2      Si          0.00000000     0.00000000     0.00000000
     47      2      Si          0.00000000     0.00000000     0.00000000
     48      2      Si          0.00000000     0.00000000     0.00000000
     49      2      Si          0.00000000     0.00000000     0.00000000
     50      2      Si          0.00000000     0.00000000     0.00000000
     51      2      Si          0.00000000     0.00000000     0.00000000
     52      2      Si          0.00000000     0.00000000     0.00000000
     53      2      Si          0.00000000     0.00000000     0.00000000
     54      2      Si          0.00000000     0.00000000     0.00000000
     55      2      Si          0.00000000     0.00000000     0.00000000
     56      2      Si          0.00000000     0.00000000     0.00000000
     57      2      Si          0.00000000     0.00000000     0.00000000
     58      2      Si          0.00000000     0.00000000     0.00000000
     59      2      Si          0.00000000     0.00000000     0.00000000
     60      2      Si          0.00000000     0.00000000     0.00000000
     61      2      Si          0.00000000     0.00000000     0.00000000
     62      2      Si          0.00000000     0.00000000     0.00000000
     63      2      Si          0.00000000     0.00000000     0.00000000
     64      2      Si          0.00000000     0.00000000     0.00000000
     65      2      Si          0.00000000     0.00000000     0.00000000
     66      2      Si          0.00000000     0.00000000     0.00000000
     67      2      Si          0.00000000     0.00000000     0.00000000
     68      2      Si          0.00000000     0.00000000     0.00000000
     69      2      Si          0.00000000     0.00000000     0.00000000
     70      2      Si          0.00000000     0.00000000     0.00000000
     71      2      Si          0.00000000     0.00000000     0.00000000
     72      2      Si          0.00000000     0.00000000     0.00000000
     73      2      Si          0.00000000     0.00000000     0.00000000
     74      2      Si          0.00000000     0.00000000     0.00000000
     75      2      Si          0.00000000     0.00000000     0.00000000
     76      2      Si          0.00000000     0.00000000     0.00000000
     77      2      Si          0.00000000     0.00000000     0.00000000
     78      2      Si          0.00000000     0.00000000     0.00000000
     79      2      Si          0.00000000     0.00000000     0.00000000
     80      2      Si          0.00000000     0.00000000     0.00000000
     81      2      Si          0.00000000     0.00000000     0.00000000
     82      2      Si          0.00000000     0.00000000     0.00000000
     83      2      Si          0.00000000     0.00000000     0.00000000
     84      2      Si          0.00000000     0.00000000     0.00000000
     85      2      Si          0.00000000     0.00000000     0.00000000
     86      2      Si          0.00000000     0.00000000     0.00000000
     87      2      Si          0.00000000     0.00000000     0.00000000
     88      2      Si          0.00000000     0.00000000     0.00000000
     89      2      Si          0.00000000     0.00000000     0.00000000
     90      2      Si          0.00000000     0.00000000     0.00000000
     91      2      Si          0.00000000     0.00000000     0.00000000
     92      2      Si          0.00000000     0.00000000     0.00000000
     93      2      Si          0.00000000     0.00000000     0.00000000
     94      2      Si          0.00000000     0.00000000     0.00000000
     95      2      Si          0.00000000     0.00000000     0.00000000
     96      2      Si          0.00000000     0.00000000     0.00000000
     97      2      Si          0.00000000     0.00000000     0.00000000
     98      2      Si          0.00000000     0.00000000     0.00000000
     99      2      Si          0.00000000     0.00000000     0.00000000
    100      2      Si          0.00000000     0.00000000     0.00000000
    101      2      Si          0.00000000     0.00000000     0.00000000
    102      2      Si          0.00000000     0.00000000     0.00000000
    103      2      Si          0.00000000     0.00000000     0.00000000
    104      2      Si          0.00000000     0.00000000     0.00000000
    105      2      Si          0.00000000     0.00000000     0.00000000
    106      2      Si          0.00000000     0.00000000     0.00000000
    107      2      Si          0.00000000     0.00000000     0.00000000
    108      2      Si          0.00000000     0.00000000     0.00000000
    109      2      Si          0.00000000     0.00000000     0.00000000
    110      2      Si          0.00000000     0.00000000     0.00000000
    111      2      Si          0.00000000     0.00000000     0.00000000
    112      2      Si          0.00000000     0.00000000     0.00000000
    113      2      Si          0.00000000     0.00000000     0.00000000
    114      2      Si          0.00000000     0.00000000     0.00000000
    115      2      Si          0.00000000     0.00000000     0.00000000
    116      2      Si          0.00000000     0.00000000     0.00000000
    117      2      Si          0.00000000     0.00000000     0.00000000
    118      2      Si          0.00000000     0.00000000     0.00000000
    119      2      Si          0.00000000     0.00000000     0.00000000
    120      2      Si          0.00000000     0.00000000     0.00000000
    121      2      Si          0.00000000     0.00000000     0.00000000
    122      2      Si          0.00000000     0.00000000     0.00000000
    123      2      Si          0.00000000     0.00000000     0.00000000
    124      2      Si          0.00000000     0.00000000     0.00000000
    125      2      Si          0.00000000     0.00000000     0.00000000
    126      2      Si          0.00000000     0.00000000     0.00000000
    127      2      Si          0.00000000     0.00000000     0.00000000
    128      2      Si          0.00000000     0.00000000     0.00000000
    129      2      Si          0.00000000     0.00000000     0.00000000
    130      2      Si          0.00000000     0.00000000     0.00000000
    131      2      Si          0.00000000     0.00000000     0.00000000
    132      2      Si          0.00000000     0.00000000     0.00000000
    133      2      Si          0.00000000     0.00000000     0.00000000
    134      2      Si          0.00000000     0.00000000     0.00000000
    135      2      Si          0.00000000     0.00000000     0.00000000
    136      2      Si          0.00000000     0.00000000     0.00000000
    137      2      Si          0.00000000     0.00000000     0.00000000
    138      2      Si          0.00000000     0.00000000     0.00000000
    139      2      Si          0.00000000     0.00000000     0.00000000
    140      2      Si          0.00000000     0.00000000     0.00000000
    141      2      Si          0.00000000     0.00000000     0.00000000
    142      2      Si          0.00000000     0.00000000     0.00000000
    143      2      Si          0.00000000     0.00000000     0.00000000
    144      2      Si          0.00000000     0.00000000     0.00000000
    145      2      Si          0.00000000     0.00000000     0.00000000
    146      2      Si          0.00000000     0.00000000     0.00000000
    147      2      Si          0.00000000     0.00000000     0.00000000
    148      2      Si          0.00000000     0.00000000     0.00000000
    149      2      Si          0.00000000     0.00000000     0.00000000
    150      2      Si          0.00000000     0.00000000     0.00000000
    151      2      Si          0.00000000     0.00000000     0.00000000
    152      2      Si          0.00000000     0.00000000     0.00000000
    153      2      Si          0.00000000     0.00000000     0.00000000
    154      2      Si          0.00000000     0.00000000     0.00000000
    155      2      Si          0.00000000     0.00000000     0.00000000
    156      2      Si          0.00000000     0.00000000     0.00000000
    157      2      Si          0.00000000     0.00000000     0.00000000
    158      2      Si          0.00000000     0.00000000     0.00000000
    159      2      Si          0.00000000     0.00000000     0.00000000
    160      2      Si          0.00000000     0.00000000     0.00000000
    161      2      Si          0.00000000     0.00000000     0.00000000
    162      2      Si          0.00000000     0.00000000     0.00000000
    163      2      Si          0.00000000     0.00000000     0.00000000
    164      2      Si          0.00000000     0.00000000     0.00000000
    165      2      Si          0.00000000     0.00000000     0.00000000
    166      2      Si          0.00000000     0.00000000     0.00000000
    167      2      Si          0.00000000     0.00000000     0.00000000
    168      2      Si          0.00000000     0.00000000     0.00000000
    169      2      Si          0.00000000     0.00000000     0.00000000
    170      2      Si          0.00000000     0.00000000     0.00000000
    171      2      Si          0.00000000     0.00000000     0.00000000
    172      2      Si          0.00000000     0.00000000     0.00000000
    173      2      Si          0.00000000     0.00000000     0.00000000
    174      2      Si          0.00000000     0.00000000     0.00000000
    175      2      Si          0.00000000     0.00000000     0.00000000
    176      2      Si          0.00000000     0.00000000     0.00000000
    177      2      Si          0.00000000     0.00000000     0.00000000
    178      2      Si          0.00000000     0.00000000     0.00000000
    179      2      Si          0.00000000     0.00000000     0.00000000
    180      2      Si          0.00000000     0.00000000     0.00000000
    181      2      Si          0.00000000     0.00000000     0.00000000
    182      2      Si          0.00000000     0.00000000     0.00000000
    183      2      Si          0.00000000     0.00000000     0.00000000
    184      2      Si          0.00000000     0.00000000     0.00000000
    185      2      Si          0.00000000     0.00000000     0.00000000
    186      2      Si          0.00000000     0.00000000     0.00000000
    187      2      Si          0.00000000     0.00000000     0.00000000
    188      2      Si          0.00000000     0.00000000     0.00000000
    189      2      Si          0.00000000     0.00000000     0.00000000
    190      2      Si          0.00000000     0.00000000     0.00000000
    191      2      Si          0.00000000     0.00000000     0.00000000
    192      3      O           0.00000000     0.00000000     0.00000000
    193      3      O           0.00000000     0.00000000     0.00000000
    194      3      O           0.00000000     0.00000000     0.00000000
    195      3      O           0.00000000     0.00000000     0.00000000
    196      3      O           0.00000000     0.00000000     0.00000000
    197      3      O           0.00000000     0.00000000     0.00000000
    198      3      O           0.00000000     0.00000000     0.00000000
    199      3      O           0.00000000     0.00000000     0.00000000
    200      3      O           0.00000000     0.00000000     0.00000000
    201      3      O           0.00000000     0.00000000     0.00000000
    202      3      O           0.00000000     0.00000000     0.00000000
    203      3      O           0.00000000     0.00000000     0.00000000
    204      3      O           0.00000000     0.00000000     0.00000000
    205      3      O           0.00000000     0.00000000     0.00000000
    206      3      O           0.00000000     0.00000000     0.00000000
    207      3      O           0.00000000     0.00000000     0.00000000
    208      3      O           0.00000000     0.00000000     0.00000000
    209      3      O           0.00000000     0.00000000     0.00000000
    210      3      O           0.00000000     0.00000000     0.00000000
    211      3      O           0.00000000     0.00000000     0.00000000
    212      3      O           0.00000000     0.00000000     0.00000000
    213      3      O           0.00000000     0.00000000     0.00000000
    214      3      O           0.00000000     0.00000000     0.00000000
    215      3      O           0.00000000     0.00000000     0.00000000
    216      3      O           0.00000000     0.00000000     0.00000000
    217      3      O           0.00000000     0.00000000     0.00000000
    218      3      O           0.00000000     0.00000000     0.00000000
    219      3      O           0.00000000     0.00000000     0.00000000
    220      3      O           0.00000000     0.00000000     0.00000000
    221      3      O           0.00000000     0.00000000     0.00000000
    222      3      O           0.00000000     0.00000000     0.00000000
    223      3      O           0.00000000     0.00000000     0.00000000
    224      3      O           0.00000000     0.00000000     0.00000000
    225      3      O           0.00000000     0.00000000     0.00000000
    226      3      O           0.00000000     0.00000000     0.00000000
    227      3      O           0.00000000     0.00000000     0.00000000
    228      3      O           0.00000000     0.00000000     0.00000000
    229      3      O           0.00000000     0.00000000     0.00000000
    230      3      O           0.00000000     0.00000000     0.00000000
    231      3      O           0.00000000     0.00000000     0.00000000
    232      3      O           0.00000000     0.00000000     0.00000000
    233      3      O           0.00000000     0.00000000     0.00000000
    234      3      O           0.00000000     0.00000000     0.00000000
    235      3      O           0.00000000     0.00000000     0.00000000
    236      3      O           0.00000000     0.00000000     0.00000000
    237      3      O           0.00000000     0.00000000     0.00000000
    238      3      O           0.00000000     0.00000000     0.00000000
    239      3      O           0.00000000     0.00000000     0.00000000
    240      3      O           0.00000000     0.00000000     0.00000000
    241      3      O           0.00000000     0.00000000     0.00000000
    242      3      O           0.00000000     0.00000000     0.00000000
    243      3      O           0.00000000     0.00000000     0.00000000
    244      3      O           0.00000000     0.00000000     0.00000000
    245      3      O           0.00000000     0.00000000     0.00000000
    246      3      O           0.00000000     0.00000000     0.00000000
    247      3      O           0.00000000     0.00000000     0.00000000
    248      3      O           0.00000000     0.00000000     0.00000000
    249      3      O           0.00000000     0.00000000     0.00000000
    250      3      O           0.00000000     0.00000000     0.00000000
    251      3      O           0.00000000     0.00000000     0.00000000
    252      3      O           0.00000000     0.00000000     0.00000000
    253      3      O           0.00000000     0.00000000     0.00000000
    254      3      O           0.00000000     0.00000000     0.00000000
    255      3      O           0.00000000     0.00000000     0.00000000
    256      3      O           0.00000000     0.00000000     0.00000000
    257      3      O           0.00000000     0.00000000     0.00000000
    258      3      O           0.00000000     0.00000000     0.00000000
    259      3      O           0.00000000     0.00000000     0.00000000
    260      3      O           0.00000000     0.00000000     0.00000000
    261      3      O           0.00000000     0.00000000     0.00000000
    262      3      O           0.00000000     0.00000000     0.00000000
    263      3      O           0.00000000     0.00000000     0.00000000
    264      3      O           0.00000000     0.00000000     0.00000000
    265      3      O           0.00000000     0.00000000     0.00000000
    266      3      O           0.00000000     0.00000000     0.00000000
    267      3      O           0.00000000     0.00000000     0.00000000
    268      3      O           0.00000000     0.00000000     0.00000000
    269      3      O           0.00000000     0.00000000     0.00000000
    270      3      O           0.00000000     0.00000000     0.00000000
    271      3      O           0.00000000     0.00000000     0.00000000
    272      3      O           0.00000000     0.00000000     0.00000000
    273      3      O           0.00000000     0.00000000     0.00000000
    274      3      O           0.00000000     0.00000000     0.00000000
    275      3      O           0.00000000     0.00000000     0.00000000
    276      3      O           0.00000000     0.00000000     0.00000000
    277      3      O           0.00000000     0.00000000     0.00000000
    278      3      O           0.00000000     0.00000000     0.00000000
    279      3      O           0.00000000     0.00000000     0.00000000
    280      3      O           0.00000000     0.00000000     0.00000000
    281      3      O           0.00000000     0.00000000     0.00000000
    282      3      O           0.00000000     0.00000000     0.00000000
    283      3      O           0.00000000     0.00000000     0.00000000
    284      3      O           0.00000000     0.00000000     0.00000000
    285      3      O           0.00000000     0.00000000     0.00000000
    286      3      O           0.00000000     0.00000000     0.00000000
    287      3      O           0.00000000     0.00000000     0.00000000
    288      3      O           0.00000000     0.00000000     0.00000000
    289      3      O           0.00000000     0.00000000     0.00000000
    290      3      O           0.00000000     0.00000000     0.00000000
    291      3      O           0.00000000     0.00000000     0.00000000
    292      3      O           0.00000000     0.00000000     0.00000000
    293      3      O           0.00000000     0.00000000     0.00000000
    294      3      O           0.00000000     0.00000000     0.00000000
    295      3      O           0.00000000     0.00000000     0.00000000
    296      3      O           0.00000000     0.00000000     0.00000000
    297      3      O           0.00000000     0.00000000     0.00000000
    298      3      O           0.00000000     0.00000000     0.00000000
    299      3      O           0.00000000     0.00000000     0.00000000
    300      3      O           0.00000000     0.00000000     0.00000000
    301      3      O           0.00000000     0.00000000     0.00000000
    302      3      O           0.00000000     0.00000000     0.00000000
    303      3      O           0.00000000     0.00000000     0.00000000
    304      3      O           0.00000000     0.00000000     0.00000000
    305      3      O           0.00000000     0.00000000     0.00000000
    306      3      O           0.00000000     0.00000000     0.00000000
    307      3      O           0.00000000     0.00000000     0.00000000
    308      3      O           0.00000000     0.00000000     0.00000000
    309      3      O           0.00000000     0.00000000     0.00000000
    310      3      O           0.00000000     0.00000000     0.00000000
    311      3      O           0.00000000     0.00000000     0.00000000
    312      3      O           0.00000000     0.00000000     0.00000000
    313      3      O           0.00000000     0.00000000     0.00000000
    314      3      O           0.00000000     0.00000000     0.00000000
    315      3      O           0.00000000     0.00000000     0.00000000
    316      3      O           0.00000000     0.00000000     0.00000000
    317      3      O           0.00000000     0.00000000     0.00000000
    318      3      O           0.00000000     0.00000000     0.00000000
    319      3      O           0.00000000     0.00000000     0.00000000
    320      3      O           0.00000000     0.00000000     0.00000000
    321      3      O           0.00000000     0.00000000     0.00000000
    322      3      O           0.00000000     0.00000000     0.00000000
    323      3      O           0.00000000     0.00000000     0.00000000
    324      3      O           0.00000000     0.00000000     0.00000000
    325      3      O           0.00000000     0.00000000     0.00000000
    326      3      O           0.00000000     0.00000000     0.00000000
    327      3      O           0.00000000     0.00000000     0.00000000
    328      3      O           0.00000000     0.00000000     0.00000000
    329      3      O           0.00000000     0.00000000     0.00000000
    330      3      O           0.00000000     0.00000000     0.00000000
    331      3      O           0.00000000     0.00000000     0.00000000
    332      3      O           0.00000000     0.00000000     0.00000000
    333      3      O           0.00000000     0.00000000     0.00000000
    334      3      O           0.00000000     0.00000000     0.00000000
    335      3      O           0.00000000     0.00000000     0.00000000
    336      3      O           0.00000000     0.00000000     0.00000000
    337      3      O           0.00000000     0.00000000     0.00000000
    338      3      O           0.00000000     0.00000000     0.00000000
    339      3      O           0.00000000     0.00000000     0.00000000
    340      3      O           0.00000000     0.00000000     0.00000000
    341      3      O           0.00000000     0.00000000     0.00000000
    342      3      O           0.00000000     0.00000000     0.00000000
    343      3      O           0.00000000     0.00000000     0.00000000
    344      3      O           0.00000000     0.00000000     0.00000000
    345      3      O           0.00000000     0.00000000     0.00000000
    346      3      O           0.00000000     0.00000000     0.00000000
    347      3      O           0.00000000     0.00000000     0.00000000
    348      3      O           0.00000000     0.00000000     0.00000000
    349      3      O           0.00000000     0.00000000     0.00000000
    350      3      O           0.00000000     0.00000000     0.00000000
    351      3      O           0.00000000     0.00000000     0.00000000
    352      3      O           0.00000000     0.00000000     0.00000000
    353      3      O           0.00000000     0.00000000     0.00000000
    354      3      O           0.00000000     0.00000000     0.00000000
    355      3      O           0.00000000     0.00000000     0.00000000
    356      3      O           0.00000000     0.00000000     0.00000000
    357      3      O           0.00000000     0.00000000     0.00000000
    358      3      O           0.00000000     0.00000000     0.00000000
    359      3      O           0.00000000     0.00000000     0.00000000
    360      3      O           0.00000000     0.00000000     0.00000000
    361      3      O           0.00000000     0.00000000     0.00000000
    362      3      O           0.00000000     0.00000000     0.00000000
    363      3      O           0.00000000     0.00000000     0.00000000
    364      3      O           0.00000000     0.00000000     0.00000000
    365      3      O           0.00000000     0.00000000     0.00000000
    366      3      O           0.00000000     0.00000000     0.00000000
    367      3      O           0.00000000     0.00000000     0.00000000
    368      3      O           0.00000000     0.00000000     0.00000000
    369      3      O           0.00000000     0.00000000     0.00000000
    370      3      O           0.00000000     0.00000000     0.00000000
    371      3      O           0.00000000     0.00000000     0.00000000
    372      3      O           0.00000000     0.00000000     0.00000000
    373      3      O           0.00000000     0.00000000     0.00000000
    374      3      O           0.00000000     0.00000000     0.00000000
    375      3      O           0.00000000     0.00000000     0.00000000
    376      3      O           0.00000000     0.00000000     0.00000000
    377      3      O           0.00000000     0.00000000     0.00000000
    378      3      O           0.00000000     0.00000000     0.00000000
    379      3      O           0.00000000     0.00000000     0.00000000
    380      3      O           0.00000000     0.00000000     0.00000000
    381      3      O           0.00000000     0.00000000     0.00000000
[...]
 flops   391 x   256 x   160         675912253440       0.0%    100.0%      0.0%
 flops    26 x    32 x    13         715379758080       0.0%    100.0%      0.0%
 flops    13 x    32 x    26         715379758080       0.0%    100.0%      0.0%
 flops   391 x   263 x   128         740687177728       0.0%    100.0%      0.0%
 flops  2023 x   256 x   135         859114045440       0.0%    100.0%      0.0%
 flops    13 x     5 x   128         926738309120       0.0%    100.0%      0.0%
 flops   391 x   263 x   662         927596027196       0.0%    100.0%      0.0%
 flops     5 x    13 x   128         929763461120       0.0%    100.0%      0.0%
 flops   416 x   288 x   135        1023916308480       0.0%    100.0%      0.0%
 flops   416 x   263 x   160        1108189255680       0.0%    100.0%      0.0%
 flops   391 x   288 x   160        1140601927680       0.0%    100.0%      0.0%
 flops   391 x   256 x   670        1218424565760       0.0%    100.0%      0.0%
 flops   391 x   263 x   675        1261082212200       0.0%    100.0%      0.0%
 flops  2020 x   263 x   135        1321944883200       0.0%    100.0%      0.0%
 flops   391 x   256 x   128        1441946140672       0.0%    100.0%      0.0%
 flops  2023 x   263 x   670        1448705581120       0.0%    100.0%      0.0%
 flops  2023 x   288 x   135        1449754951680       0.0%    100.0%      0.0%
 flops  2023 x   263 x   160        1569076346880       0.0%    100.0%      0.0%
 flops   391 x   256 x   662        1805814319104       0.0%    100.0%      0.0%
 flops   416 x   263 x   670        1997663166720       0.0%    100.0%      0.0%
 flops   391 x   288 x   670        2056091454720       0.0%    100.0%      0.0%
 flops  2023 x   263 x   662        2147111406048       0.0%    100.0%      0.0%
 flops   416 x   256 x   160        2157387448320       0.0%    100.0%      0.0%
 flops   416 x   263 x   128        2364137078784       0.0%    100.0%      0.0%
 flops   391 x   288 x   128        2433284112384       0.0%    100.0%      0.0%
 flops   391 x   256 x   675        2455034572800       0.0%    100.0%      0.0%
 flops    13 x    13 x   135        2494147846320       0.0%    100.0%      0.0%
 flops  2020 x   256 x   135        2573520076800       0.0%    100.0%      0.0%
 flops  2023 x   256 x   670        2820293754880       0.0%    100.0%      0.0%
 flops  2023 x   263 x   675        2919033633600       0.0%    100.0%      0.0%
 flops   416 x   263 x   662        2960715708288       0.0%    100.0%      0.0%
 flops   391 x   288 x   662        3047311663488       0.0%    100.0%      0.0%
 flops  2023 x   256 x   160        3054627717120       0.0%    100.0%      0.0%
 flops  2023 x   263 x   128        3347362873344       0.0%    100.0%      0.0%
 flops   416 x   288 x   160        3640591319040       0.0%    100.0%      0.0%
 flops   416 x   256 x   670        3888986849280       0.0%    100.0%      0.0%
 flops   416 x   263 x   675        4025142201600       0.0%    100.0%      0.0%
 flops   391 x   288 x   675        4142870841600       0.0%    100.0%      0.0%
 flops  2023 x   256 x   662        4179927908352       0.0%    100.0%      0.0%
 flops  2020 x   263 x   670        4339671686400       0.0%    100.0%      0.0%
 flops  2020 x   288 x   135        4342815129600       0.0%    100.0%      0.0%
 flops   416 x   256 x   128        4602426556416       0.0%    100.0%      0.0%
 flops  2020 x   263 x   160        4700248473600       0.0%    100.0%      0.0%
 flops  2023 x   288 x   670        4759245711360       0.0%    100.0%      0.0%
 flops  2023 x   288 x   160        5154684272640       0.0%    100.0%      0.0%
 flops  2023 x   256 x   675        5682681446400       0.0%    100.0%      0.0%
 flops   416 x   256 x   662        5763826778112       0.0%    100.0%      0.0%
 flops    13 x    32 x     5        5810039364480       0.0%    100.0%      0.0%
 flops     5 x    32 x    13        5810039364480       0.0%    100.0%      0.0%
 flops  2020 x   263 x   662        6431782066560       0.0%    100.0%      0.0%
 flops  2023 x   256 x   128        6516539129856       0.0%    100.0%      0.0%
 flops   416 x   288 x   670        6562665308160       0.0%    100.0%      0.0%
 flops  2023 x   288 x   662        7053628345344       0.0%    100.0%      0.0%
 flops   416 x   288 x   128        7766594813952       0.0%    100.0%      0.0%
 flops   416 x   256 x   675        7836018278400       0.0%    100.0%      0.0%
 flops  2020 x   256 x   670        8448334233600       0.0%    100.0%      0.0%
 flops  2020 x   263 x   675        8744114592000       0.0%    100.0%      0.0%
 flops    13 x    13 x   160        8868081231360       0.0%    100.0%      0.0%
 flops  2020 x   256 x   160        9150293606400       0.0%    100.0%      0.0%
 flops  2023 x   288 x   675        9589524940800       0.0%    100.0%      0.0%
 flops   416 x   288 x   662        9726457688064       0.0%    100.0%      0.0%
 flops  2020 x   263 x   128       10027196743680       0.0%    100.0%      0.0%
 flops  2023 x   288 x   128       10996659781632       0.0%    100.0%      0.0%
 flops  2020 x   256 x   662       12521187901440       0.0%    100.0%      0.0%
 flops   416 x   288 x   675       13223280844800       0.0%    100.0%      0.0%
 flops  2020 x   288 x   670       14256564019200       0.0%    100.0%      0.0%
 flops  2020 x   288 x   160       15441120460800       0.0%    100.0%      0.0%
 flops  2020 x   256 x   675       17022763008000       0.0%    100.0%      0.0%
 flops    13 x    13 x   128       18918573293568       0.0%    100.0%      0.0%
 flops  2020 x   256 x   128       19520626360320       0.0%    100.0%      0.0%
 flops  2020 x   288 x   662       21129504583680       0.0%    100.0%      0.0%
 flops  2020 x   288 x   675       28725912576000       0.0%    100.0%      0.0%
 flops  2020 x   288 x   128       32941056983040       0.0%    100.0%      0.0%
 flops    13 x    32 x    13      117784369599936       0.0%    100.0%      0.0%
 flops inhomo. stacks              81685235074608     100.0%      0.0%      0.0%
 flops total                       647.535397E+12      12.6%     87.4%      0.0%
 flops max/rank                     28.578792E+12      12.6%     87.4%      0.0%
 matmuls inhomo. stacks                    236664     100.0%      0.0%      0.0%
 matmuls total                        15156925516       0.0%    100.0%      0.0%
 number of processed stacks              20939556       1.1%     98.9%      0.0%
 average stack size                                     1.0     732.1       0.0
 marketing flops                     1.094596E+15
 -------------------------------------------------------------------------------
 # multiplications                          12829
 max memory usage/rank             933.109760E+06
 # max total images/rank                        3
 # max 3D layers                                1
 # MPI messages exchanged                 5850024
 MPI messages size (bytes):
  total size                        10.383868E+12
  min size                           0.000000E+00
  max size                          11.264064E+06
  average size                       1.775013E+06
 MPI breakdown and total messages size (bytes):
             size <=      128               34344                        0
       128 < size <=     8192                   0                        0
      8192 < size <=    32768                1296                 42467328
     32768 < size <=   131072                 648                 25278480
    131072 < size <=  4194304             5569896            7730945515072
   4194304 < size <= 16777216              243840            2655209888960
  16777216 < size                               0                        0
 -------------------------------------------------------------------------------

 *** WARNING in dbcsr_mm.F:295 :: Using a non-square number of MPI ranks ***
 *** might lead to poor performance. Used ranks: 24 Suggested: 25 49     ***

 -------------------------------------------------------------------------------
 -                                                                             -
 -                      DBCSR MESSAGE PASSING PERFORMANCE                      -
 -                                                                             -
 -------------------------------------------------------------------------------
 ROUTINE             CALLS      AVE VOLUME [Bytes]
 MP_Group             1543
 MP_Bcast              124                     12.
 MP_Allreduce        64717                    109.
 MP_Alltoall         58036                 770324.
 MP_Wait            718424
 MP_ISend           591320                 800399.
 MP_IRecv           581642                 806314.
 MP_Memory         1183060
 -------------------------------------------------------------------------------

 MEMORY| Estimated peak process memory [MiB]                                 890

 -------------------------------------------------------------------------------
 -                                                                             -
 -                         MESSAGE PASSING PERFORMANCE                         -
 -                                                                             -
 -------------------------------------------------------------------------------

 ROUTINE             CALLS      AVE VOLUME [Bytes]
 MP_Group                5
 MP_Bcast            36990                 228776.
 MP_Allreduce        98719                   1250.
 MP_Sync                 5
 MP_Alltoall         15649               33831894.
 MP_SendRecv          4784                  15919.
 MP_ISendRecv        97566                 127093.
 MP_Wait            192731
 MP_ISend            84952                 805200.
 MP_IRecv            84952                 805365.
 MP_Recv              6831                1379008.
 -------------------------------------------------------------------------------


 -------------------------------------------------------------------------------
 -                                                                             -
 -                           R E F E R E N C E S                               -
 -                                                                             -
 -------------------------------------------------------------------------------
 
 CP2K version 7.1, the CP2K developers group (2019).
 CP2K is freely available from https://www.cp2k.org/ .

 Schuett, Ole; Messmer, Peter; Hutter, Juerg; VandeVondele, Joost. 
 Electronic Structure Calculations on Graphics Processing Units, John
 Wiley & Sons, Ltd, 173-190 (2016). 
 GPU-Accelerated Sparse Matrix-Matrix Multiplication for
 Linear Scaling Density Functional Theory.
 https://dx.doi.org/10.1002/9781118670712.ch8

 Borstnik, U; VandeVondele, J; Weber, V; Hutter, J. 
 PARALLEL COMPUTING, 40 (5-6), 47-58 (2014). 
 Sparse matrix multiplication: The distributed block-compressed sparse
 row library.
 https://dx.doi.org/10.1016/j.parco.2014.03.012

 Hutter, J; Iannuzzi, M; Schiffmann, F; VandeVondele, J. 
 WIREs Comput Mol Sci., 4 (1), 15-25 (2014). 
 CP2K: atomistic simulations of condensed matter systems.
 https://dx.doi.org/10.1002/wcms.1159

 Grimme, S; Ehrlich, S; Goerigk, L. 
 JOURNAL OF COMPUTATIONAL CHEMISTRY, 32, 1456 (2011). 
 Effect of the damping function in dispersion corrected density functional theory.
 https://dx.doi.org/10.1002/jcc.21759

 Grimme, S; Antony, J; Ehrlich, S; Krieg, H. 
 JOURNAL OF CHEMICAL PHYSICS, 132 (15), 154104 (2010). 
 A consistent and accurate ab initio parametrization of density
 functional dispersion correction (DFT-D) for the 94 elements H-Pu.
 https://dx.doi.org/10.1063/1.3382344

 VandeVondele, J; Hutter, J. 
 JOURNAL OF CHEMICAL PHYSICS, 127 (11), 114105 (2007). 
 Gaussian basis sets for accurate calculations on molecular systems in
 gas and condensed phases.
 https://dx.doi.org/10.1063/1.2770708

 Krack, M. 
 THEORETICAL CHEMISTRY ACCOUNTS, 114 (1-3), 145-152 (2005). 
 Pseudopotentials for H to Kr optimized for gradient-corrected
 exchange-correlation functionals.
 https://dx.doi.org/10.1007/s00214-005-0655-y

 VandeVondele, J; Krack, M; Mohamed, F; Parrinello, M; Chassaing, T;
 Hutter, J. COMPUTER PHYSICS COMMUNICATIONS, 167 (2), 103-128 (2005). 
 QUICKSTEP: Fast and accurate density functional calculations using a
 mixed Gaussian and plane waves approach.
 https://dx.doi.org/10.1016/j.cpc.2004.12.014

 Frigo, M; Johnson, SG. 
 PROCEEDINGS OF THE IEEE, 93 (2), 216-231 (2005). 
 The design and implementation of FFTW3.
 https://dx.doi.org/10.1109/JPROC.2004.840301

 Kolafa, J. 
 JOURNAL OF COMPUTATIONAL CHEMISTRY, 25 (3), 335-342 (2004). 
 Time-reversible always stable predictor-corrector method for molecular dynamics of polarizable molecules.
 https://dx.doi.org/10.1002/jcc.10385

 VandeVondele, J; Hutter, J. 
 JOURNAL OF CHEMICAL PHYSICS, 118 (10), 4365-4369 (2003). 
 An efficient orbital transformation method for electronic structure
 calculations.
 https://dx.doi.org/10.1063/1.1543154

 Hartwigsen, C; Goedecker, S; Hutter, J. 
 PHYSICAL REVIEW B, 58 (7), 3641-3662 (1998). 
 Relativistic separable dual-space Gaussian pseudopotentials from H to Rn.
 https://dx.doi.org/10.1103/PhysRevB.58.3641

 Lippert, G; Hutter, J; Parrinello, M. 
 MOLECULAR PHYSICS, 92 (3), 477-487 (1997). 
 A hybrid Gaussian and plane wave density functional scheme.
 https://dx.doi.org/10.1080/002689797170220

 Perdew, JP; Burke, K; Ernzerhof, M. 
 PHYSICAL REVIEW LETTERS, 77 (18), 3865-3868 (1996). 
 Generalized gradient approximation made simple.
 https://dx.doi.org/10.1103/PhysRevLett.77.3865

 Goedecker, S; Teter, M; Hutter, J. 
 PHYSICAL REVIEW B, 54 (3), 1703-1710 (1996). 
 Separable dual-space Gaussian pseudopotentials.
 https://dx.doi.org/10.1103/PhysRevB.54.1703


 -------------------------------------------------------------------------------
 -                                                                             -
 -                                T I M I N G                                  -
 -                                                                             -
 -------------------------------------------------------------------------------
 SUBROUTINE                       CALLS  ASD         SELF TIME        TOTAL TIME
                                MAXIMUM       AVERAGE  MAXIMUM  AVERAGE  MAXIMUM
 CP2K                                 1  1.0    0.016    0.018 9218.147 9218.159
 cp_geo_opt                           1  2.0    0.000    0.000 9216.867 9216.878
 geoopt_bfgs                          1  3.0    0.249    0.279 9216.867 9216.878
 cp_eval_at                          53  4.0    0.012    0.111 9173.554 9173.619
 qs_forces                           52  5.0    0.017    0.018 9112.173 9112.184
 qs_energies                         53  6.0    0.004    0.006 8680.817 8681.239
 scf_env_do_scf                      53  7.0    0.003    0.007 8326.407 8326.488
 scf_env_do_scf_inner_loop          855  8.0    0.032    0.077 6455.368 6463.683
 rebuild_ks_matrix                  907  9.8    0.004    0.005 3240.905 3246.894
 qs_ks_build_kohn_sham_matrix       907 10.8    0.116    0.129 3240.901 3246.890
 qs_ks_update_qs_env                909  9.0    0.007    0.008 2869.374 2874.617
 dbcsr_multiply_generic           12829 13.7    0.972    1.119 2318.387 2347.539
 qs_scf_new_mos                     855  9.0    0.005    0.007 2212.815 2220.851
 qs_scf_loop_do_ot                  855 10.0    0.005    0.007 2212.810 2220.847
 ot_scf_mini                        855 11.0    0.029    0.040 2066.995 2071.614
 multiply_cannon                  12829 14.7    2.559    2.965 1923.234 2010.266
 init_scf_loop                       54  8.0    0.002    0.003 1861.264 1861.340
 multiply_cannon_multrec         153948 15.7 1630.000 1746.229 1630.142 1746.359
 qs_rho_update_rho                  908  9.1    0.005    0.006 1717.023 1719.796
 calculate_rho_elec                 908 10.1 1176.968 1249.721 1717.018 1719.790
 sum_up_and_integrate               506 11.7    2.473    2.538 1577.835 1578.120
 integrate_v_rspace                 506 12.7 1331.954 1365.261 1575.361 1575.718
 prepare_preconditioner              54  9.0    0.000    0.001 1556.988 1558.016
 make_preconditioner                 54 10.0    0.001    0.002 1504.827 1505.506
 make_full_all                       54 11.0    0.091    0.125 1459.553 1459.619
 qs_vxc_create                      907 11.8    0.016    0.018 1362.798 1363.489
 pw_transfer                      15096 13.3    1.140    1.228 1275.143 1287.382
 fft_wrap_pw1pw2                  13282 14.3    0.161    0.175 1255.745 1268.054
 ot_mini                            855 12.0    0.005    0.007 1245.883 1254.115
 fft_wrap_pw1pw2_180               7626 15.6  107.656  109.172 1212.791 1224.286
 cp_fm_syevd                        779 13.7    0.012    0.016 1076.722 1081.035
 cp_fm_syevd_base                   779 14.7 1076.709 1081.024 1076.709 1081.024
 xc_rho_set_and_dset_create         907 13.8    7.571    7.661  965.985  971.488
 fft3d_ps                         13282 16.3  525.440  534.804  941.104  955.616
 xc_vxc_pw_create                   506 12.7   28.157   30.430  934.456  935.146
 apply_preconditioner_dbcsr         508 14.0    0.001    0.001  712.090  726.180
 apply_all                          508 15.0    1.267    1.342  712.089  726.179
 ot_new_cg_direction                454 13.0    0.008    0.010  654.091  654.112
 qs_ot_get_derivative               454 13.0    0.005    0.006  584.804  590.247
 density_rs2pw                      908 11.1    0.060    0.075  489.378  547.583
 xc_functional_eval                 907 14.8    0.009    0.011  440.263  445.521
 pbe_lda_eval                       907 15.8  440.253  445.512  440.253  445.512
 xc_exc_calc                        401 13.0    1.694    1.707  428.326  428.339
 qs_ks_update_qs_env_forces          52  6.0    0.000    0.000  374.705  375.403
 qs_ot_get_p                        909 11.9    0.006    0.007  342.229  359.036
 mp_waitall_1                    826203 17.0  258.797  321.603  258.797  321.603
 rs_pw_transfer                    7175 13.0    0.105    0.123  259.114  320.075
 x_to_yz                           6665 18.1  201.352  202.760  269.748  274.636
 qs_ot_get_orbitals                 855 12.0    0.005    0.007  266.007  271.647
 init_scf_run                        53  7.0    0.001    0.004  268.312  268.322
 scf_env_initial_rho_setup           53  8.0    0.001    0.002  268.311  268.320
 wfi_extrapolate                     53  9.0    0.008    0.011  263.992  264.008
 cp_gemm                            876 10.2    0.003    0.005  251.923  253.157
 cp_gemm_fm_gemm                    876 11.2    0.003    0.004  251.920  253.154
 cp_fm_gemm                         876 12.2  251.917  253.152  251.917  253.152
 make_m2s                         25658 14.7    0.937    1.079  249.629  252.365
 qs_ot_get_derivative_diag          280 14.0    0.009    0.014  245.338  249.683
 multiply_cannon_metrocomm3      153948 15.7    0.395    0.473  170.752  238.826
 mp_sum_l                         60352 14.8   90.259  190.035   90.259  190.035
 potential_pw2rs                    506 13.7    0.193    0.266  187.341  187.706
 rs_pw_transfer_RS2PW_180           961 12.9   35.699   46.315  125.030  185.763
 -------------------------------------------------------------------------------

 The number of warnings for this run is : 2
 
 -------------------------------------------------------------------------------
  **** **** ******  **  PROGRAM ENDED AT                 2022-07-05 21:39:56.121
 ***** ** ***  *** **   PROGRAM RAN ON             node0245.palmetto.clemson.edu
 **    ****   ******    PROGRAM RAN BY                                   xiutinc
 ***** **    ** ** **   PROGRAM PROCESS ID                               2121575
  **** **  *******  **  PROGRAM STOPPED IN  /scratch1/xiutinc/CP2K-5305507.pbs02
