ITEM: TIMESTEP
2500000
ITEM: NUMBER OF ATOMS
4768
ITEM: BOX BOUNDS xy xz yz pp pp pp
0.0000000000000000e+00 2.4433001000000001e+01 0.0000000000000000e+00
0.0000000000000000e+00 2.4433001000000001e+01 0.0000000000000000e+00
0.0000000000000000e+00 8.7675772958794497e+01 0.0000000000000000e+00
ITEM: ATOMS id mol type q x y z
1 1 1 -0.834 4.99306 16.3089 69.7237
2 1 1 -0.834 7.2781 12.6415 28.2855
3 1 1 -0.834 7.84738 21.269 54.0309
4 1 1 -0.834 22.3125 3.19687 69.577
5 1 1 -0.834 22.4154 23.0841 24.079
6 1 1 -0.834 8.69848 19.1831 40.6467
7 1 1 -0.834 6.32325 22.3392 77.3795
8 1 1 -0.834 6.1102 15.8663 72.4904
9 1 1 -0.834 1.78046 14.4534 69.6441
10 1 1 -0.834 13.0752 21.4306 13.39
11 1 1 -0.834 18.1063 16.0411 57.997
12 1 1 -0.834 21.7322 12.6107 39.2011
13 1 1 -0.834 19.1609 2.94919 19.3425
14 1 1 -0.834 11.5589 15.9216 64.769
15 1 1 -0.834 16.2842 24.2641 76.397
16 1 1 -0.834 16.4455 13.1694 31.4956
17 1 1 -0.834 3.24909 3.11147 50.2289
18 1 1 -0.834 1.30618 11.6483 83.0099
19 1 1 -0.834 23.8833 20.4444 23.8865
20 1 1 -0.834 11.1234 0.311488 71.8721
21 1 1 -0.834 14.965 23.2442 50.4155
22 1 1 -0.834 20.4559 21.1392 23.3346
23 1 1 -0.834 13.3261 12.5454 79.5878
24 1 1 -0.834 15.2629 9.09418 68.8752
25 1 1 -0.834 1.94769 19.8586 59.5187
26 1 1 -0.834 19.7796 11.0294 63.6871
27 1 1 -0.834 12.3512 15.5134 52.8243
28 1 1 -0.834 14.2261 16.8233 44.9755
29 1 1 -0.834 8.40695 12.8312 56.4529
30 1 1 -0.834 2.3537 10.3467 62.0963
31 1 1 -0.834 3.37106 8.08096 50.464
32 1 1 -0.834 7.73573 4.34818 47.42
33 1 1 -0.834 4.96792 15.7705 48.7696
34 1 1 -0.834 10.2714 18.8308 45.7688
35 1 1 -0.834 10.0368 2.92142 57.5567
36 1 1 -0.834 19.8336 8.02488 50.9149
37 1 1 -0.834 0.455066 13.7857 65.2992
38 1 1 -0.834 17.6623 9.66401 57.2266
39 1 1 -0.834 15.9386 20.3662 78.5335
40 1 1 -0.834 21.912 16.7742 70.2184
41 1 1 -0.834 21.8059 3.53108 42.0362
42 1 1 -0.834 12.5423 5.706 73.6146
43 1 1 -0.834 23.4339 4.87439 57.0914
44 1 1 -0.834 11.3236 20.1761 11.5988
45 1 1 -0.834 8.14305 6.223 79.3569
46 1 1 -0.834 0.483428 21.8117 2.52737
47 1 1 -0.834 17.0897 12.1393 75.6333
48 1 1 -0.834 12.3571 10.9295 46.7618
49 1 1 -0.834 15.513 19.4044 63.9793
50 1 1 -0.834 18.7091 16.542 62.9807
51 1 1 -0.834 6.09724 18.9466 70.0261
52 1 1 -0.834 3.12169 3.22031 14.3683
53 1 1 -0.834 3.88371 24.2473 72.0199
54 1 1 -0.834 10.9644 4.7555 25.8702
55 1 1 -0.834 8.02153 7.09007 70.916
56 1 1 -0.834 2.25901 5.72516 47.1753
57 1 1 -0.834 15.9638 23.9906 46.7226
58 1 1 -0.834 0.153151 18.0183 69.1906
59 1 1 -0.834 18.3514 2.74188 59.1117
60 1 1 -0.834 20.4085 18.1358 59.2597
61 1 1 -0.834 22.4131 8.61042 69.9407
62 1 1 -0.834 14.7838 23.4643 82.0949
63 1 1 -0.834 19.6214 21.0504 68.4745
64 1 1 -0.834 11.1376 2.10519 69.8241
65 1 1 -0.834 23.4972 5.80587 52.725
66 1 1 -0.834 4.4406 4.81026 55.8265
67 1 1 -0.834 13.4806 8.02702 60.4393
68 1 1 -0.834 12.8625 12.7469 8.51202
69 1 1 -0.834 17.6193 11.7026 33.7677
70 1 1 -0.834 18.3336 2.51015 50.7065
71 1 1 -0.834 21.7582 19.6909 69.3924
72 1 1 -0.834 4.13605 15.9815 61.6979
73 1 1 -0.834 4.15645 12.7453 43.5293
74 1 1 -0.834 4.60386 20.9283 68.5612
75 1 1 -0.834 20.0326 12.6508 46.8935
76 1 1 -0.834 15.9389 17.0547 49.7823
77 1 1 -0.834 2.67378 10.8165 79.9945
78 1 1 -0.834 20.1859 0.990775 53.1375
79 1 1 -0.834 0.681952 11.1573 41.6416
80 1 1 -0.834 19.9838 16.9744 43.8378
81 1 1 -0.834 20.1094 0.0174805 23.5324
82 1 1 -0.834 9.68872 14.4841 66.8281
83 1 1 -0.834 6.47753 4.98271 5.78376
84 1 1 -0.834 5.48494 13.0228 55.9101
85 1 1 -0.834 18.098 21.1648 76.8505
86 1 1 -0.834 6.57263 9.99752 28.696
87 1 1 -0.834 2.99938 12.4555 73.4302
88 1 1 -0.834 20.0816 16.7544 66.7227
89 1 1 -0.834 20.0552 0.822377 26.9009
90 1 1 -0.834 12.9261 0.925026 86.0089
91 1 1 -0.834 21.9942 0.120015 45.953
92 1 1 -0.834 21.1547 11.3219 44.5072
93 1 1 -0.834 5.75696 17.5647 65.3174
94 1 1 -0.834 0.923286 10.2637 66.353
95 1 1 -0.834 17.3275 18.8768 33.8842
96 1 1 -0.834 22.5622 12.9896 18.8667
97 1 1 -0.834 16.5539 6.82069 65.4332
98 1 1 -0.834 3.58424 0.195142 81.0122
99 1 1 -0.834 22.4581 24.1994 26.8038
100 1 1 -0.834 14.2915 14.7326 37.9038
101 1 1 -0.834 2.80773 4.96326 73.35
102 1 1 -0.834 3.6315 14.1191 23.1282
103 1 1 -0.834 9.17843 22.388 71.1641
104 1 1 -0.834 23.734 3.31248 47.0401
105 1 1 -0.834 1.80933 4.5946 78.7292
106 1 1 -0.834 21.0298 12.1739 49.4726
107 1 1 -0.834 15.3 11.894 69.718
108 1 1 -0.834 19.6316 14.8025 51.1568
109 1 1 -0.834 16.3428 19.9354 75.1556
110 1 1 -0.834 1.75964 20.9343 27.6716
111 1 1 -0.834 5.50829 4.66261 79.2528
112 1 1 -0.834 11.1977 6.68687 27.6197
113 1 1 -0.834 15.4964 13.7847 60.6518
114 1 1 -0.834 2.26824 19.2971 23.4317
115 1 1 -0.834 20.5944 14.152 78.2279
116 1 1 -0.834 15.0928 23.7043 74.0205
117 1 1 -0.834 11.3831 14.4212 47.682
118 1 1 -0.834 6.88327 3.5069 10.7451
119 1 1 -0.834 10.7397 13.5543 57.1147
120 1 1 -0.834 6.55817 10.2418 72.2036
121 1 1 -0.834 22.1579 0.151646 65.3937
122 1 1 -0.834 19.5104 16.4978 33.0088
123 1 1 -0.834 14.4738 11.6587 59.1265
124 1 1 -0.834 20.2588 11.3983 11.6626
125 1 1 -0.834 17.2444 1.93193 43.9628
126 1 1 -0.834 4.56108 13.2372 58.5478
127 1 1 -0.834 12.7185 18.2524 63.2252
128 1 1 -0.834 3.85884 14.3759 79.5119
129 1 1 -0.834 6.96556 13.6559 0.946637
130 1 1 -0.834 3.31352 17.9113 86.6269
131 1 1 -0.834 1.51805 21.8251 62.1777
132 1 1 -0.834 4.92646 11.0466 53.173
133 1 1 -0.834 12.3674 22.6232 57.9021
134 1 1 -0.834 2.47209 23.6203 60.3081
135 1 1 -0.834 12.0673 18.3458 13.8207
136 1 1 -0.834 12.7441 4.23452 65.7663
137 1 1 -0.834 18.601 17.3928 4.54363
138 1 1 -0.834 20.1871 0.370946 60.116
139 1 1 -0.834 19.8349 6.38505 82.9016
140 1 1 -0.834 18.3864 13.3611 72.743
141 1 1 -0.834 4.21469 14.0551 70.9953
142 1 1 -0.834 0.0149651 20.3273 78.6641
143 1 1 -0.834 12.7717 13.5897 61.6479
144 1 1 -0.834 0.603607 19.8548 43.4127
145 1 1 -0.834 6.14224 22.2414 70.8304
146 1 1 -0.834 22.0778 10.7743 75.8567
147 1 1 -0.834 1.60268 23.6947 49.4057
148 1 1 -0.834 21.9694 20.1366 74.5682
149 1 1 -0.834 1.18663 5.88673 60.426
150 1 1 -0.834 22.7079 17.3536 43.5678
151 1 1 -0.834 14.7519 22.3797 65.4355
152 1 1 -0.834 17.2824 15.8126 47.757
153 1 1 -0.834 15.3698 19.3792 48.5855
154 1 1 -0.834 21.6549 0.912762 56.3188
155 1 1 -0.834 14.0721 8.73109 53.5286
156 1 1 -0.834 6.88577 4.31721 73.4459
157 1 1 -0.834 15.8226 17.1179 74.9023
158 1 1 -0.834 13.6551 1.59986 77.0133
159 1 1 -0.834 14.862 12.6372 52.3942
160 1 1 -0.834 10.4019 24.0404 68.3945
161 1 1 -0.834 19.6948 2.02796 73.6217
162 1 1 -0.834 22.7141 15.0557 79.4909
163 1 1 -0.834 11.4578 18.4582 79.7467
164 1 1 -0.834 4.52434 8.9022 27.1718
165 1 1 -0.834 10.408 20.5298 69.6294
166 1 1 -0.834 0.275295 12.2532 75.5624
167 1 1 -0.834 16.1869 16.1348 52.8731
168 1 1 -0.834 8.46548 23.2877 57.7672
169 1 1 -0.834 19.2205 19.1224 27.4826
170 1 1 -0.834 1.32117 18.9198 20.7196
171 1 1 -0.834 3.98199 1.05055 37.8059
172 1 1 -0.834 6.69767 14.8166 54.1708
173 1 1 -0.834 17.9908 10.8788 47.0086
174 1 1 -0.834 1.50364 17.0607 43.2994
175 1 1 -0.834 4.26722 19.6806 17.5333
176 1 1 -0.834 4.11133 5.36169 58.6066
177 1 1 -0.834 5.80506 19.5709 55.5164
178 1 1 -0.834 0.96296 16.0936 24.952
179 1 1 -0.834 10.3187 19.7033 37.6545
180 1 1 -0.834 4.69061 24.0089 54.549
181 1 1 -0.834 9.3909 2.30733 73.431
182 1 1 -0.834 11.9406 13.3776 4.61065
183 1 1 -0.834 5.4718 5.07726 63.3776
184 1 1 -0.834 18.0342 19.3289 7.94965
185 1 1 -0.834 23.0306 18.1504 22.885
186 1 1 -0.834 21.491 20.21 49.2113
187 1 1 -0.834 11.805 23.0524 60.545
188 1 1 -0.834 8.77336 23.7346 45.177
189 1 1 -0.834 3.88647 15.8062 83.0852
190 1 1 -0.834 12.7427 5.58834 51.0889
191 1 1 -0.834 3.6363 9.86183 65.8944
192 1 1 -0.834 22.6418 2.41886 58.3401
193 1 1 -0.834 15.8447 23.314 70.5375
194 1 1 -0.834 22.8819 2.57371 34.4043
195 1 1 -0.834 19.8447 15.2738 8.75067
196 1 1 -0.834 8.8502 4.71561 3.00294
197 1 1 -0.834 19.3019 2.54919 61.7705
198 1 1 -0.834 3.20643 1.7958 74.1018
199 1 1 -0.834 22.0549 5.68805 75.662
200 1 1 -0.834 9.488 18.4869 63.1053
201 1 1 -0.834 14.646 2.34252 0.659268
202 1 1 -0.834 22.4518 23.4336 61.6205
203 1 1 -0.834 4.32246 3.36721 9.50781
204 1 1 -0.834 18.3581 21.9078 43.3194
205 1 1 -0.834 13.0041 13.2179 44.4213
206 1 1 -0.834 6.67554 2.07919 68.9952
207 1 1 -0.834 13.7431 5.52639 21.6138
208 1 1 -0.834 2.64422 19.5167 56.8449
209 1 1 -0.834 18.5699 21.2981 51.0246
210 1 1 -0.834 9.38202 22.8007 35.5676
211 1 1 -0.834 1.85319 13.4836 58.5797
212 1 1 -0.834 0.3608 15.0738 44.9075
213 1 1 -0.834 23.222 14.6261 63.2502
214 1 1 -0.834 9.43511 4.17416 60.0199
215 1 1 -0.834 5.99884 11.7933 3.02885
216 1 1 -0.834 11.8144 4.61306 80.7949
217 1 1 -0.834 10.4622 17.7352 48.3451
218 1 1 -0.834 23.9195 12.5884 80.4881
219 1 1 -0.834 7.29675 15.2677 62.1544
220 1 1 -0.834 20.4762 3.73678 47.8558
221 1 1 -0.834 4.63474 22.4252 79.5859
222 1 1 -0.834 24.3818 16.2634 21.7929
223 1 1 -0.834 19.7863 8.65514 55.7845
224 1 1 -0.834 20.1738 5.28156 61.9832
225 1 1 -0.834 11.7413 10.3929 4.69285
226 1 1 -0.834 17.0304 2.37964 74.785
227 1 1 -0.834 6.79861 12.3465 67.0924
228 1 1 -0.834 10.8242 19.8349 51.3852
229 1 1 -0.834 17.4371 18.5463 51.8974
230 1 1 -0.834 17.2038 20.8984 69.9471
231 1 1 -0.834 11.7688 4.63512 76.0246
232 1 1 -0.834 3.53779 5.79338 75.7411
233 1 1 -0.834 17.2413 16.4096 66.5107
234 1 1 -0.834 6.16017 0.651469 47.3059
235 1 1 -0.834 10.2148 9.89417 45.1363
236 1 1 -0.834 14.8228 10.2265 74.5111
237 1 1 -0.834 6.57752 20.5578 72.9571
238 1 1 -0.834 16.2876 13.138 10.6677
239 1 1 -0.834 15.8319 1.46883 24.6398
240 1 1 -0.834 4.90017 22.707 64.1719
241 1 1 -0.834 1.3765 11.2332 51.9514
242 1 1 -0.834 16.821 10.7886 36.6287
243 1 1 -0.834 4.54101 20.4673 59.6407
244 1 1 -0.834 2.35496 15.4484 20.6035
245 1 1 -0.834 16.4634 0.804046 66.587
246 1 1 -0.834 12.6049 0.66964 64.4408
247 1 1 -0.834 22.6498 2.88439 9.6851
248 1 1 -0.834 6.49317 19.159 63.2343
249 1 1 -0.834 15.3926 10.4668 48.831
250 1 1 -0.834 22.8124 8.71635 37.1061
251 1 1 -0.834 2.01545 0.351182 76.2093
252 1 1 -0.834 16.2898 22.6679 63.2085
253 1 1 -0.834 23.3821 0.951114 31.8412
254 1 1 -0.834 15.3799 22.0355 56.0213
255 1 1 -0.834 17.8332 8.6236 59.8789
256 1 1 -0.834 23.1076 4.50428 49.4488
257 1 1 -0.834 20.9516 9.53013 53.4848
258 1 1 -0.834 20.2205 17.8508 6.92159
259 1 1 -0.834 12.9448 15.172 58.4116
260 1 1 -0.834 18.3411 2.48374 54.8043
261 1 1 -0.834 22.3656 11.6156 68.6107
262 1 1 -0.834 21.9585 16.3849 46.3317
263 1 1 -0.834 0.820033 16.4081 74.4209
264 1 1 -0.834 13.9624 7.31491 77.4794
265 1 1 -0.834 13.7784 7.58188 24.8646
266 1 1 -0.834 9.33901 21.9291 10.4956
267 1 1 -0.834 11.6693 6.4201 1.83152
268 1 1 -0.834 15.8582 14.1736 13.1982
269 1 1 -0.834 18.8914 5.0387 56.2574
270 1 1 -0.834 12.0542 24.3377 51.0139
271 1 1 -0.834 15.6499 18.7936 45.8648
272 1 1 -0.834 13.7766 9.12887 27.2529
273 1 1 -0.834 11.2558 16.0832 45.4494
274 1 1 -0.834 11.4716 23.5468 48.129
275 1 1 -0.834 14.3379 21.2698 39.7141
276 1 1 -0.834 3.78487 2.58255 5.08872
277 1 1 -0.834 1.7382 4.46424 63.5092
278 1 1 -0.834 18.4918 9.09754 12.4544
279 1 1 -0.834 23.7488 11.1654 61.104
280 1 1 -0.834 0.602962 23.1209 7.81744
281 1 1 -0.834 8.42858 10.6643 30.6968
282 1 1 -0.834 12.4584 20.5179 74.6249
283 1 1 -0.834 20.8018 12.0029 60.6009
284 1 1 -0.834 15.7614 14.3156 29.1678
285 1 1 -0.834 0.152978 22.5765 5.02874
286 1 1 -0.834 1.98479 7.36086 77.3286
287 1 1 -0.834 23.2551 1.44456 79.4119
288 1 1 -0.834 9.11508 15.3495 76.5934
289 1 1 -0.834 21.6279 3.96601 45.1261
290 1 1 -0.834 16.8316 8.39043 39.974
291 1 1 -0.834 9.28187 7.19834 0.921754
292 1 1 -0.834 18.0339 16.911 10.2642
293 1 1 -0.834 19.1971 23.4943 30.1227
294 1 1 -0.834 12.9279 18.3919 49.5251
295 1 1 -0.834 11.0752 14.8959 74.3517
296 1 1 -0.834 13.1846 20.2845 16.092
297 1 1 -0.834 17.5718 23.8405 51.0151
298 1 1 -0.834 13.1618 13.5568 29.057
299 1 1 -0.834 16.6993 18.5652 68.5372
300 1 1 -0.834 12.6295 1.63352 42.9186
301 1 1 -0.834 0.875093 3.46117 5.63118
302 1 1 -0.834 14.7042 5.51467 67.5607
303 1 1 -0.834 9.87767 8.49554 5.12377
304 1 1 -0.834 6.3927 1.80222 71.9226
305 1 1 -0.834 13.7404 16.5877 33.9231
306 1 1 -0.834 12.4204 12.9459 50.4938
307 1 1 -0.834 0.957182 3.65854 10.6001
308 1 1 -0.834 12.9982 14.419 77.3988
309 1 1 -0.834 16.5762 7.08424 46.2874
310 1 1 -0.834 13.0439 8.73863 66.1281
311 1 1 -0.834 1.41932 0.678822 51.9894
312 1 1 -0.834 2.83899 1.18222 35.1515
313 1 1 -0.834 13.773 21.3356 77.1071
314 1 1 -0.834 10.6948 10.2745 70.1467
315 1 1 -0.834 0.621279 6.59787 34.6899
316 1 1 -0.834 12.1481 23.2088 15.298
317 1 1 -0.834 17.9402 4.40226 82.2469
318 1 1 -0.834 21.3455 11.336 41.7665
319 1 1 -0.834 1.33536 18.5997 25.991
320 1 1 -0.834 10.6701 17.5967 53.8716
321 1 1 -0.834 17.1126 16.8471 29.1729
322 1 1 -0.834 21.8929 13.6555 52.111
323 1 1 -0.834 13.8587 19.5137 69.8004
324 1 1 -0.834 6.88008 14.8855 46.2247
325 1 1 -0.834 7.93492 18.7641 47.8118
326 1 1 -0.834 5.64134 2.51394 75.0288
327 1 1 -0.834 22.7883 17.6955 74.553
328 1 1 -0.834 10.7452 24.3999 19.7226
329 1 1 -0.834 24.0941 0.506724 59.9704
330 1 1 -0.834 4.12919 13.261 67.5422
331 1 1 -0.834 9.65533 5.13988 67.0015
332 1 1 -0.834 3.19886 23.3379 69.6053
333 1 1 -0.834 1.00363 23.3876 31.8126
334 1 1 -0.834 6.34789 12.7619 51.5405
335 1 1 -0.834 5.42878 5.27744 50.0985
336 1 1 -0.834 10.4651 9.3378 24.1368
337 1 1 -0.834 8.9806 10.579 78.8368
338 1 1 -0.834 5.65007 9.03788 0.791319
339 1 1 -0.834 16.1685 20.0093 72.5477
340 1 1 -0.834 14.7737 15.3158 79.5223
341 1 1 -0.834 2.84927 21.5956 43.2747
342 1 1 -0.834 3.45737 3.23514 29.0133
343 1 1 -0.834 16.9653 15.8653 45.054
344 1 1 -0.834 9.00349 20.281 57.873
345 1 1 -0.834 16.1419 10.2089 52.812
346 1 1 -0.834 12.8125 6.38681 57.3815
347 1 1 -0.834 1.98185 12.0141 54.6195
348 1 1 -0.834 7.95454 20.0019 15.8596
349 1 1 -0.834 21.8635 21.6253 32.3858
350 1 1 -0.834 6.77934 12.7713 70.5992
351 1 1 -0.834 20.3188 3.62951 75.8339
352 1 1 -0.834 10.9581 8.03637 55.1861
353 1 1 -0.834 20.8265 14.947 64.4497
354 1 1 -0.834 4.0772 20.6223 62.1179
355 1 1 -0.834 14.4011 4.32313 47.9775
356 1 1 -0.834 13.8567 13.1043 56.8748
357 1 1 -0.834 5.41765 14.9186 75.6883
358 1 1 -0.834 17.468 2.88295 47.6892
359 1 1 -0.834 1.25912 23.0434 46.6732
360 1 1 -0.834 12.7338 15.3516 81.3522
361 1 1 -0.834 22.1348 11.032 55.8955
362 1 1 -0.834 21.175 10.4468 14.2385
363 1 1 -0.834 17.5661 4.96888 17.4121
364 1 1 -0.834 10.9633 11.242 31.5405
365 1 1 -0.834 14.041 12.3689 35.4724
366 1 1 -0.834 16.6424 7.20245 73.3315
367 1 1 -0.834 0.0672199 22.5098 53.2241
368 1 1 -0.834 2.49444 17.7899 18.6215
369 1 1 -0.834 17.763 15.5647 78.8041
370 1 1 -0.834 18.0944 18.9519 64.7214
371 1 1 -0.834 5.28635 0.62059 77.1035
372 1 1 -0.834 21.176 18.4097 56.7464
373 1 1 -0.834 2.61893 15.3069 66.6102
374 1 1 -0.834 21.7601 7.866 81.1368
375 1 1 -0.834 14.76 6.90532 81.0349
376 1 1 -0.834 4.69705 24.0862 57.4069
377 1 1 -0.834 20.8328 13.8845 74.2733
378 1 1 -0.834 1.13967 20.5958 68.5346
379 1 1 -0.834 10.636 8.92258 58.8188
380 1 1 -0.834 11.4239 17.7925 10.3977
381 1 1 -0.834 16.2228 7.50037 22.5418
382 1 1 -0.834 17.6446 24.0988 27.1823
383 1 1 -0.834 2.60014 8.92023 42.3986
384 1 1 -0.834 14.7057 23.2081 20.3168
385 1 1 -0.834 20.2892 5.19106 17.749
386 1 1 -0.834 0.496054 1.89927 49.0187
387 1 1 -0.834 11.1945 0.888644 16.8382
388 1 1 -0.834 3.95768 10.3206 56.2701
389 1 1 -0.834 6.18891 22.3581 17.4677
390 1 1 -0.834 19.9789 6.96362 58.047
391 1 1 -0.834 21.7567 18.619 63.1466
392 1 1 -0.834 20.7119 8.403 44.4022
393 1 1 -0.834 13.2847 19.3829 37.9333
394 1 1 -0.834 15.1321 4.1466 55.1347
395 1 1 -0.834 10.5226 9.31717 61.5402
396 1 1 -0.834 14.2816 4.55564 78.6209
397 1 1 -0.834 6.9634 7.15229 32.3951
398 1 1 -0.834 17.3705 13.5671 51.9358
399 1 1 -0.834 5.8846 0.560868 44.4637
400 1 1 -0.834 8.05487 12.2943 74.0264
401 1 1 -0.834 11.2323 24.0125 37.4755
402 1 1 -0.834 20.7796 23.9106 42.6995
403 1 1 -0.834 7.18197 14.1778 24.2241
404 1 1 -0.834 2.86015 10.6141 71.3378
405 1 1 -0.834 5.27583 0.152846 33.0296
406 1 1 -0.834 18.4496 10.2483 41.2374
407 1 1 -0.834 18.2343 18.8767 44.8476
408 1 1 -0.834 7.61776 19.0365 37.6375
409 1 1 -0.834 17.1702 17.3069 36.2278
410 1 1 -0.834 24.2831 7.15189 50.5707
411 1 1 -0.834 10.5798 12.6812 1.92529
412 1 1 -0.834 8.52402 20.193 35.1315
413 1 1 -0.834 5.88622 7.16559 76.0436
414 1 1 -0.834 13.034 11.9336 64.1327
415 1 1 -0.834 21.8196 9.09176 83.5429
416 1 1 -0.834 19.4736 6.45441 13.077
417 1 1 -0.834 12.6927 0.654666 83.123
418 1 1 -0.834 19.1248 18.9327 47.4886
419 1 1 -0.834 5.55973 22.8958 74.9213
420 1 1 -0.834 8.59287 4.41684 27.4612
421 1 1 -0.834 15.783 24.1597 53.6744
422 1 1 -0.834 10.9247 4.53316 48.7518
423 1 1 -0.834 1.75628 14.467 42.3494
424 1 1 -0.834 23.8034 3.12333 77.1102
425 1 1 -0.834 11.6769 18.9955 40.3083
426 1 1 -0.834 8.01234 15.1534 74.1785
427 1 1 -0.834 5.50746 10.4608 43.3992
428 1 1 -0.834 7.80976 22.2503 50.0274
429 1 1 -0.834 9.80021 7.76523 47.4175
430 1 1 -0.834 15.8711 15.3595 72.928
431 1 1 -0.834 15.3347 6.01829 52.2663
432 1 1 -0.834 19.1565 21.7499 46.7714
433 1 1 -0.834 16.2979 15.613 32.9328
434 1 1 -0.834 2.01023 1.6689 79.3925
435 1 1 -0.834 24.0531 22.0984 73.1459
436 1 1 -0.834 15.1357 10.216 33.9291
437 1 1 -0.834 5.42607 2.83246 32.59
438 1 1 -0.834 4.39409 16.8929 22.1868
439 1 1 -0.834 16.6666 0.323244 18.6298
440 1 1 -0.834 12.0456 10.1921 73.4483
441 1 1 -0.834 23.6919 1.10118 8.12653
442 1 1 -0.834 15.7938 12.695 81.3423
443 1 1 -0.834 12.7114 15.7201 12.9743
444 1 1 -0.834 9.14484 6.29452 53.6273
445 1 1 -0.834 1.99116 7.44686 72.3931
446 1 1 -0.834 17.3008 15.4579 7.74033
447 1 1 -0.834 23.3836 1.71862 62.5005
448 1 1 -0.834 2.56284 12.7952 20.0076
449 1 1 -0.834 5.80273 8.43036 59.4367
450 1 1 -0.834 22.3139 0.429416 71.6903
451 1 1 -0.834 0.451582 18.8133 2.8547
452 1 1 -0.834 10.4075 2.29972 75.9972
453 1 1 -0.834 24.0452 23.8156 75.4573
454 1 1 -0.834 9.54637 23.5913 80.7434
455 1 1 -0.834 0.633142 8.71389 60.3554
456 1 1 -0.834 12.1637 8.63501 51.614
457 1 1 -0.834 0.947609 3.33034 69.4919
458 1 1 -0.834 19.4909 7.59336 76.2253
459 1 1 -0.834 12.9805 13.1301 54.3599
460 1 1 -0.834 18.9418 8.81433 73.5419
461 1 1 -0.834 2.37585 20.5001 46.4412
462 1 1 -0.834 7.29064 23.7143 55.4352
463 1 1 -0.834 4.98501 4.95623 52.9267
464 1 1 -0.834 15.4355 0.617966 61.9115
465 1 1 -0.834 21.6003 22.95 79.2681
466 1 1 -0.834 23.9909 6.08203 77.7855
467 1 1 -0.834 3.30166 20.5751 76.2112
468 1 1 -0.834 10.2064 15.4243 50.0136
469 1 1 -0.834 3.92786 10.5725 59.9172
470 1 1 -0.834 6.46582 1.91014 58.3745
471 1 1 -0.834 7.69167 14.4783 49.7599
472 1 1 -0.834 0.311822 0.547426 34.2863
473 1 1 -0.834 6.93737 21.7175 62.691
474 1 1 -0.834 8.9651 9.15267 7.97423
475 1 1 -0.834 19.684 15.1143 45.7109
476 1 1 -0.834 10.1807 13.2491 43.7807
477 1 1 -0.834 10.3778 12.0277 61.7571
478 1 1 -0.834 14.5098 12.3294 5.73171
479 1 1 -0.834 17.1697 4.25889 42.6438
480 1 1 -0.834 9.60919 11.9571 49.2956
481 1 1 -0.834 4.58089 11.2592 86.3116
482 1 1 -0.834 23.1887 7.55489 63.2197
483 1 1 -0.834 9.40773 14.4074 27.1981
484 1 1 -0.834 11.7428 11.7167 58.9237
485 1 1 -0.834 1.70503 16.2441 58.032
486 1 1 -0.834 4.51865 7.31573 67.6756
487 1 1 -0.834 1.82577 0.819289 63.2518
488 1 1 -0.834 0.884953 10.0105 57.8354
489 1 1 -0.834 14.8432 19.8158 33.3548
490 1 1 -0.834 6.86435 12.1601 48.1761
491 1 1 -0.834 9.58651 15.5689 42.3365
492 1 1 -0.834 17.2975 5.40771 76.8219
493 1 1 -0.834 19.78 17.2809 29.7757
494 1 1 -0.834 3.3 12.4926 76.271
495 1 1 -0.834 14.5746 18.706 66.4822
496 1 1 -0.834 10.7143 15.4685 78.7264
497 1 1 -0.834 7.38254 23.1751 65.2272
498 1 1 -0.834 20.2876 8.05625 39.7532
499 1 1 -0.834 16.2269 16.3912 59.9846
500 1 1 -0.834 9.3075 8.80255 66.1205
501 1 1 -0.834 16.4907 9.98196 79.2576
502 1 1 -0.834 1.3294 3.94036 45.3892
503 1 1 -0.834 23.3882 21.7064 70.2612
504 1 1 -0.834 4.3971 4.78474 36.8435
505 1 1 -0.834 8.85318 19.3465 73.4772
506 1 1 -0.834 24.3816 12.3662 21.1036
507 1 1 -0.834 4.53808 24.3506 61.9045
508 1 1 -0.834 7.43112 13.421 77.3277
509 1 1 -0.834 15.2893 5.20454 24.0877
510 1 1 -0.834 12.6977 5.90556 69.2905
511 1 1 -0.834 7.725 6.65608 49.222
512 1 1 -0.834 23.4557 12.4554 45.5998
513 1 1 -0.834 13.9219 2.98586 23.1463
514 1 1 -0.834 7.2915 17.5033 55.2475
515 1 1 -0.834 20.099 17.0017 79.305
516 1 1 -0.834 5.83189 5.57942 8.40534
517 1 1 -0.834 5.36406 12.0635 80.6036
518 1 1 -0.834 22.0613 9.04867 61.2796
519 1 1 -0.834 17.7245 3.42536 67.8665
520 1 1 -0.834 12.324 11.3259 68.0818
521 1 1 -0.834 15.581 9.7299 46.0557
522 1 1 -0.834 4.37897 18.8381 41.5915
523 1 1 -0.834 1.04877 19.9452 86.5539
524 1 1 -0.834 14.1755 5.15329 71.4812
525 1 1 -0.834 11.685 10.8289 28.8763
526 1 1 -0.834 10.0622 1.51807 39.3734
527 1 1 -0.834 3.16913 14.3158 63.5912
528 1 1 -0.834 17.3298 11.7273 54.717
529 1 1 -0.834 10.4037 0.030364 78.3425
530 1 1 -0.834 7.59556 8.7795 42.3577
531 1 1 -0.834 7.39453 3.17043 8.06684
532 1 1 -0.834 17.0692 14.2689 63.515
533 1 1 -0.834 21.0333 9.87612 58.8365
534 1 1 -0.834 7.38763 13.9913 80.0555
535 1 1 -0.834 15.6272 3.8821 45.6147
536 1 1 -0.834 13.5253 2.0955 45.5374
537 1 1 -0.834 23.0727 6.11217 45.8
538 1 1 -0.834 10.902 18.8863 56.5732
539 1 1 -0.834 19.5167 5.60389 53.2226
540 1 1 -0.834 20.2233 9.37808 37.5329
541 1 1 -0.834 15.9927 18.175 31.5566
542 1 1 -0.834 23.0307 16.1793 85.6361
543 1 1 -0.834 4.09057 8.94159 47.9428
544 1 1 -0.834 18.5718 15.3371 54.852
545 1 1 -0.834 23.9249 11.2041 38.377
546 1 1 -0.834 21.3454 22.4394 63.7613
547 1 1 -0.834 19.4618 15.6067 69.187
548 1 1 -0.834 17.6192 9.76205 16.5921
549 1 1 -0.834 10.3158 14.5453 71.6333
550 1 1 -0.834 20.9299 8.09055 15.8608
551 1 1 -0.834 7.53949 16.1986 82.886
552 1 1 -0.834 12.9845 5.96818 54.5318
553 1 1 -0.834 20.5264 23.6746 75.3478
554 1 1 -0.834 21.5243 5.36694 55.0116
555 1 1 -0.834 18.8538 23.4919 78.6038
556 1 1 -0.834 0.553174 3.92168 35.7233
557 1 1 -0.834 23.6092 0.784327 28.9364
558 1 1 -0.834 13.6041 23.9845 41.2184
559 1 1 -0.834 16.4781 1.35186 84.6841
560 1 1 -0.834 8.68468 2.77203 70.8676
561 1 1 -0.834 1.40513 19.76 65.7923
562 1 1 -0.834 10.354 19.5847 81.9253
563 1 1 -0.834 23.9466 5.86118 71.1446
564 1 1 -0.834 0.159508 11.2112 63.9087
565 1 1 -0.834 0.728767 23.8568 71.0532
566 1 1 -0.834 12.1406 2.76996 78.9696
567 1 1 -0.834 2.89931 1.89902 47.5886
568 1 1 -0.834 7.10092 7.08852 55.5811
569 1 1 -0.834 5.4064 15.931 52.0178
570 1 1 -0.834 1.12106 5.88755 30.9674
571 1 1 -0.834 23.1964 17.3265 61.0093
572 1 1 -0.834 5.10019 4.2996 12.6336
573 1 1 -0.834 11.0209 6.11177 60.9539
574 1 1 -0.834 11.8726 3.36047 72.471
575 1 1 -0.834 15.9473 23.7382 43.8386
576 1 1 -0.834 5.73447 23.9882 9.12567
577 1 1 -0.834 23.0224 23.5773 51.1438
578 1 1 -0.834 17.8725 23.0929 74.3238
579 1 1 -0.834 7.10027 11.0424 64.6366
580 1 1 -0.834 14.022 23.9357 17.5259
581 1 1 -0.834 9.4651 16.2307 60.5832
582 1 1 -0.834 6.34445 10.6506 61.9184
583 1 1 -0.834 2.53233 7.84258 58.6392
584 1 1 -0.834 19.7791 11.2815 74.3098
585 1 1 -0.834 12.2039 12.0287 75.5904
586 1 1 -0.834 13.5371 6.6636 83.5025
587 1 1 -0.834 3.24637 22.0433 73.2048
588 1 1 -0.834 10.9488 21.6584 77.0813
589 1 1 -0.834 7.37843 10.6125 86.8462
590 1 1 -0.834 9.60178 20.8931 19.7599
591 1 1 -0.834 9.84212 13.3233 29.6207
592 1 1 -0.834 18.4014 4.10535 45.5841
593 1 1 -0.834 14.2837 15.5403 55.8648
594 1 1 -0.834 13.6644 15.6745 50.439
595 1 1 -0.834 23.0575 6.19651 59.449
596 1 1 -0.834 10.1708 0.517951 56.4365
597 1 1 -0.834 11.2786 4.03048 23.1478
598 1 1 -0.834 3.37386 4.05063 70.8133
599 1 1 -0.834 15.3424 16.9541 70.6927
600 1 1 -0.834 6.81112 17.8591 50.3902
601 1 1 -0.834 22.8083 18.5499 52.1907
602 1 1 -0.834 10.4006 1.80592 80.7506
603 1 1 -0.834 10.6064 15.8196 8.54141
604 1 1 -0.834 10.8363 23.6888 53.4988
605 1 1 -0.834 19.7273 13.9478 34.3925
606 1 1 -0.834 16.926 22.3125 58.6443
607 1 1 -0.834 7.9099 5.38251 43.7637
608 1 1 -0.834 2.76011 22.3084 56.3658
609 1 1 -0.834 12.0272 3.58671 62.0972
610 1 1 -0.834 18.7279 24.0724 45.3026
611 1 1 -0.834 4.28953 4.78472 65.7896
612 1 1 -0.834 5.20417 22.5752 13.0878
613 1 1 -0.834 17.6858 5.48987 50.071
614 1 1 -0.834 1.1884 2.45006 30.2867
615 1 1 -0.834 5.09225 20.8078 49.7258
616 1 1 -0.834 15.5558 18.1047 7.84242
617 1 1 -0.834 3.01722 13.7451 84.4795
618 1 1 -0.834 22.7539 17.9268 4.40753
619 1 1 -0.834 13.5082 21.608 80.0227
620 1 1 -0.834 6.75618 8.8356 79.1586
621 1 1 -0.834 16.726 19.6675 54.2002
622 1 1 -0.834 10.9494 8.37438 68.1327
623 1 1 -0.834 17.0056 8.32377 77.0916
624 1 1 -0.834 14.502 13.1564 46.6662
625 1 1 -0.834 24.2955 9.23699 80.565
626 1 1 -0.834 20.0718 2.26957 65.0617
627 1 1 -0.834 14.2874 10.9214 9.97456
628 1 1 -0.834 15.723 13.3432 49.3318
629 1 1 -0.834 17.709 1.67179 21.3878
630 1 1 -0.834 13.1487 1.12649 20.9279
631 1 1 -0.834 11.4409 2.19671 67.1183
632 1 1 -0.834 13.5847 18.9042 52.0218
633 1 1 -0.834 8.76623 12.0689 25.8114
634 1 1 -0.834 4.24377 13.2093 48.5655
635 1 1 -0.834 4.04731 21.7492 40.6325
636 1 1 -0.834 17.1826 2.6339 77.6989
637 1 1 -0.834 4.99826 21.0704 45.5484
638 1 1 -0.834 4.01201 19.0071 47.9851
639 1 1 -0.834 18.2035 6.9115 15.4502
640 1 1 -0.834 17.4801 0.254303 82.2263
641 1 1 -0.834 21.6649 4.85046 80.2391
642 1 1 -0.834 6.46042 10.2693 57.3573
643 1 1 -0.834 0.266282 12.5883 49.4614
644 1 1 -0.834 22.0261 4.35308 15.6576
645 1 1 -0.834 0.822078 1.82683 66.2682
646 1 1 -0.834 5.27708 19.175 80.7686
647 1 1 -0.834 23.849 20.0167 45.8098
648 1 1 -0.834 8.32069 24.1947 40.3515
649 1 1 -0.834 11.1279 8.01591 30.2656
650 1 1 -0.834 22.3495 8.11259 66.2873
651 1 1 -0.834 15.4289 16.7791 11.6342
652 1 1 -0.834 10.6778 11.2865 55.462
653 1 1 -0.834 9.28947 11.9959 71.5516
654 1 1 -0.834 14.2964 18.9971 10.3474
655 1 1 -0.834 16.6092 11.3803 72.014
656 1 1 -0.834 9.82382 8.84377 73.0737
657 1 1 -0.834 15.546 6.63526 48.8457
658 1 1 -0.834 13.5018 17.8583 54.5867
659 1 1 -0.834 14.8874 11.1972 77.2072
660 1 1 -0.834 1.56263 11.9877 44.5097
661 1 1 -0.834 2.29455 18.9207 63.2256
662 1 1 -0.834 5.72965 21.6645 52.1595
663 1 1 -0.834 19.5618 0.97389 47.688
664 1 1 -0.834 1.22811 10.1213 15.0611
665 1 1 -0.834 22.3057 3.78051 63.9025
666 1 1 -0.834 0.199683 13.9888 52.4986
667 1 1 -0.834 16.3596 0.701821 59.0548
668 1 1 -0.834 13.1936 17.0755 76.1927
669 1 1 -0.834 2.59204 3.32796 60.9756
670 1 1 -0.834 13.794 3.17216 68.9977
671 1 1 -0.834 22.5311 12.0095 82.642
672 1 1 -0.834 14.3169 18.3714 80.9947
673 1 1 -0.834 6.00208 9.76202 50.349
674 1 1 -0.834 8.50783 21.6199 39.5426
675 1 1 -0.834 17.7994 5.50437 59.8979
676 1 1 -0.834 5.20935 1.66384 7.50225
677 1 1 -0.834 10.1395 11.1436 87.5857
678 1 1 -0.834 20.1797 2.00649 43.8165
679 1 1 -0.834 9.92878 21.4148 63.2508
680 1 1 -0.834 1.90012 23.0987 66.8636
681 1 1 -0.834 12.1391 10.496 49.4717
682 1 1 -0.834 10.5817 5.81568 78.5149
683 1 1 -0.834 23.1472 22.4747 67.3805
684 1 1 -0.834 19.5834 19.5107 71.9693
685 1 1 -0.834 17.5081 0.792326 69.2041
686 1 1 -0.834 22.27 6.38555 13.7876
687 1 1 -0.834 12.2709 19.8097 58.6272
688 1 1 -0.834 18.9964 5.12266 70.8921
689 1 1 -0.834 19.2201 19.5147 62.2729
690 1 1 -0.834 2.60238 7.49977 32.8389
691 1 1 -0.834 1.14309 13.5886 47.1916
692 1 1 -0.834 20.7395 4.15487 50.8617
693 1 1 -0.834 17.1863 23.8163 1.23333
694 1 1 -0.834 18.8142 6.44685 47.8207
695 1 1 -0.834 1.72629 5.71219 55.0784
696 1 1 -0.834 19.8958 5.15269 78.0654
697 1 1 -0.834 12.8803 9.81876 56.0346
698 1 1 -0.834 0.987559 17.1464 78.9674
699 1 1 -0.834 4.74968 0.705048 13.6598
700 1 1 -0.834 17.9523 8.04451 53.1039
701 1 1 -0.834 10.5893 2.56703 84.2863
702 1 1 -0.834 24.1841 5.09702 38.7872
703 1 1 -0.834 1.31137 11.1442 17.5979
704 1 1 -0.834 10.1703 5.13383 55.7809
705 1 1 -0.834 0.750419 3.10328 74.7129
706 1 1 -0.834 3.06355 18.1188 69.4027
707 1 1 -0.834 18.3997 24.0008 85.697
708 1 1 -0.834 7.41692 13.8506 43.8374
709 1 1 -0.834 21.8574 14.3927 58.1844
710 1 1 -0.834 23.1672 7.92488 56.9437
711 1 1 -0.834 2.78374 16.1095 47.1401
712 1 1 -0.834 18.5306 16.0801 73.7714
713 1 1 -0.834 15.4945 5.84232 84.8897
714 1 1 -0.834 15.1738 14.635 68.8942
715 1 1 -0.834 22.9528 19.8886 54.8935
716 1 1 -0.834 5.45236 6.22006 71.4613
717 1 1 -0.834 6.85623 17.8616 42.1283
718 1 1 -0.834 23.8387 14.8596 76.5036
719 1 1 -0.834 1.49171 7.48351 62.7433
720 1 1 -0.834 7.55278 0.64253 35.3337
721 1 1 -0.834 9.79231 21.8541 16.1059
722 1 1 -0.834 3.54483 3.12672 77.1581
723 1 1 -0.834 7.73674 2.33358 60.8883
724 1 1 -0.834 8.43578 16.491 39.2375
725 1 1 -0.834 7.33986 20.1958 82.7676
726 1 1 -0.834 11.3048 22.1285 82.3426
727 1 1 -0.834 4.90879 4.27145 47.5331
728 1 1 -0.834 1.73696 6.86838 37.6928
729 1 1 -0.834 16.3725 23.0819 79.7139
730 1 1 -0.834 3.52488 12.6138 0.840453
731 1 1 -0.834 20.9282 5.89054 72.8208
732 1 1 -0.834 7.55516 9.63123 69.4885
733 1 1 -0.834 16.8559 8.80736 71.1035
734 1 1 -0.834 21.6063 9.54742 49.4148
735 1 1 -0.834 20.0939 13.4755 13.2505
736 1 1 -0.834 23.3148 8.04899 54.2521
737 1 1 -0.834 20.5243 23.7195 68.9593
738 1 1 -0.834 6.18973 0.758014 50.1726
739 1 1 -0.834 3.44905 9.38739 74.8207
740 1 1 -0.834 19.1681 2.11634 85.9854
741 1 1 -0.834 3.66117 10.5754 83.5305
742 1 1 -0.834 4.41318 21.5816 15.4931
743 1 1 -0.834 19.4035 11.7369 36.1422
744 1 1 -0.834 10.8481 9.71281 42.4368
745 1 1 -0.834 5.39735 15.9091 87.3608
746 1 1 -0.834 4.47976 3.0739 45.2891
747 1 1 -0.834 19.8073 8.97908 67.4197
748 1 1 -0.834 10.2489 17.7301 75.6986
749 1 1 -0.834 11.4328 14.2514 69.0493
750 1 1 -0.834 8.63329 23.8438 76.5715
751 1 1 -0.834 23.295 20.7377 65.1035
752 1 1 -0.834 24.101 18.0581 58.4272
753 1 1 -0.834 22.3419 21.9247 42.8085
754 1 1 -0.834 20.5975 21.6026 60.5073
755 1 1 -0.834 7.61785 7.51487 3.25375
756 1 1 -0.834 6.77168 21.045 66.9927
757 1 1 -0.834 5.07153 4.60364 68.654
758 1 1 -0.834 2.45299 20.0565 83.78
759 1 1 -0.834 15.489 3.73752 81.3639
760 1 1 -0.834 20.0024 5.8028 66.9592
761 1 1 -0.834 7.98492 3.02866 63.5631
762 1 1 -0.834 23.4843 17.069 0.62886
763 1 1 -0.834 17.8626 20.5988 30.2207
764 1 1 -0.834 6.63596 2.86992 55.7917
765 1 1 -0.834 16.8365 7.009 43.1297
766 1 1 -0.834 20.3306 22.9259 55.8567
767 1 1 -0.834 20.9045 13.9415 15.7135
768 1 1 -0.834 23.9535 20.7458 50.3162