LAMMPS data file via write_data, version 23 Jun 2022, timestep = 5000000

4768 atoms
16 atom types
2400 bonds
1 bond types
1200 angles
1 angle types

0 24.433001 xlo xhi
0 24.433001 ylo yhi
0 87.6757729587945 zlo zhi
0 0 0 xy xz yz

Masses

1      15.999    # O_HOH
2       1.008    # H_HOH
3      47.867    # Ti_FAU
4      28.085    # Si_FAU
5      15.999    # O_FAU
6      15.999    # O_FAU
7      15.999    # O_FAU
8      15.999    # O_FAU
9       1.008    # H_FAU
10      1.008    # H_FAU
11     12.011    # C_ADS
12      1.008    # H_ADS
13     15.999    # O_ADS
14      1.008    # H_ADS
15     15.999    # O_ADS
16     15.999    # O_unknown

Pair Coeffs # lj/cut/coul/long/omp

1      0.1521    3.1507    # O_HOH
2      0.0460    0.4000    # H_HOH
3      0.6076    1.9580    # Ti_FAU
4      0.0440    2.3000    # Si_FAU
5      0.1050    3.3000    # O_FAU
6      0.3321    2.8750    # O_FAU
7      0.1700    3.1200    # O_FAU
8      0.1700    3.1200    # O_FAU
9      0.0000    0.0000    # H_FAU
10     0.0000    0.0000    # H_FAU
11     0.0660    3.5000    # C_ADS
12     0.0300    2.5000    # H_ADS
13     0.1700    3.1200    # O_ADS
14     0.0000    0.0000    # H_ADS
15     0.1700    3.0700    # O_ADS
16     0.1400    2.9000    # O_unknown

Bond Coeffs # harmonic/omp

1 450 0.9572

Angle Coeffs # harmonic/omp

1 55 104.52

Atoms # full

1     1     1        -0.834000    9.663662   17.552611   66.978151    -2   8   0  # O_HOH
2     2     1        -0.834000    5.842892    3.240773    6.751366   -11   1   2  # O_HOH
3     3     1        -0.834000   11.545915    7.911514    5.670742     1 -12   1  # O_HOH
4     4     1        -0.834000   17.193852   14.386989   64.555107     7   0  -1  # O_HOH
5     5     1        -0.834000   19.055025    4.678959   55.485884     5  -1   0  # O_HOH
6     6     1        -0.834000    5.870656    4.855705   57.170778    -4   1   0  # O_HOH
7     7     1        -0.834000   17.947904   23.004457   68.889047     4   4   0  # O_HOH
8     8     1        -0.834000   11.996050   15.680790   60.959608     5  -1   0  # O_HOH
9     9     1        -0.834000   21.765061    8.742068   40.709000     8  -1   0  # O_HOH
10    10    1        -0.834000    8.885853    9.050611    7.388780    -2  -4   0  # O_HOH
11    11    1        -0.834000    7.172772    1.850071   60.580917     6   0   0  # O_HOH
12    12    1        -0.834000    3.876424   15.586271   54.540306    10   2   0  # O_HOH
13    13    1        -0.834000    1.136712   20.361407   75.932018     0   7   0  # O_HOH
14    14    1        -0.834000   15.832106    4.397289   58.461122   -11  -3  -1  # O_HOH
15    15    1        -0.834000    0.234053   17.684909   78.194270     4  -1   0  # O_HOH
16    16    1        -0.834000   14.555804   16.338430   30.165561    -1   5   1  # O_HOH
17    17    1        -0.834000   22.420789   20.854525   65.811234    -3  -1   0  # O_HOH
18    18    1        -0.834000    4.370007    6.041449   52.990830    -3   0   0  # O_HOH
19    19    1        -0.834000   11.747620    4.072306   23.779062    -5   2  -1  # O_HOH
20    20    1        -0.834000   19.041024    1.344175   84.811545     3  -1   1  # O_HOH
21    21    1        -0.834000    9.459030    0.336066   40.868924    -1   1   1  # O_HOH
22    22    1        -0.834000    5.098704    9.074599   62.391001     6   5   0  # O_HOH
23    23    1        -0.834000   16.995901   23.038336   25.204205    -4  -5  -1  # O_HOH
24    24    1        -0.834000   10.968000   10.458051   76.968858     0   5   1  # O_HOH
25    25    1        -0.834000    2.654585   14.549539   62.793327     1  -4  -1  # O_HOH
26    26    1        -0.834000   19.959302   23.289970   86.378051    -4   0   0  # O_HOH
27    27    1        -0.834000    4.293733   13.886226   56.693120     3  -3  -1  # O_HOH
28    28    1        -0.834000    2.315885    8.520912   58.010994    -1   3  -1  # O_HOH
29    29    1        -0.834000   13.790928   10.971307   76.811698     5  -6   1  # O_HOH
30    30    1        -0.834000   17.258816    8.076841   18.405727    -3  11   1  # O_HOH
31    31    1        -0.834000   20.141285   10.343440   81.997845     3   2   0  # O_HOH
32    32    1        -0.834000    2.580691    1.782683   76.611543     1   6   0  # O_HOH
33    33    1        -0.834000   10.935715   22.492330   52.037665     7  15   1  # O_HOH
34    34    1        -0.834000   15.034021   23.866339   22.791716    -5  -4   1  # O_HOH
35    35    1        -0.834000   22.706936    4.231615   53.454044    -7  -2   0  # O_HOH
36    36    1        -0.834000   23.449570   14.942375   68.504658    -2   4   1  # O_HOH
37    37    1        -0.834000    0.725324   13.769065   52.936261    -2  -3  -1  # O_HOH
38    38    1        -0.834000   20.393395    9.404054   35.893893     3   0  -1  # O_HOH
39    39    1        -0.834000    7.561532   24.369977   76.607240    -2   5   1  # O_HOH
40    40    1        -0.834000   15.932189   18.570133   34.951804    -3  -1  -1  # O_HOH
41    41    1        -0.834000    0.625035    9.711469   56.469285    -1   4   0  # O_HOH
42    42    1        -0.834000   12.485893    2.100878   57.080424    -7   4   0  # O_HOH
43    43    1        -0.834000    4.000476   24.093175   45.569487    -6   6  -1  # O_HOH
44    44    1        -0.834000   10.454145   12.437609    5.086668    -1   1   2  # O_HOH
45    45    1        -0.834000    2.057023   12.915501   67.060492    -3  11   1  # O_HOH
46    46    1        -0.834000    6.473174   12.789266   55.665874     2   4  -1  # O_HOH
47    47    1        -0.834000    9.439469    4.261512   65.233988    -1   5   0  # O_HOH
48    48    1        -0.834000   23.327458    8.192550   11.994536    -6  -2  -1  # O_HOH
49    49    1        -0.834000   22.617125   16.649328   43.873682    -5   3   1  # O_HOH
50    50    1        -0.834000    0.871321   14.722276   42.460426     6   1   0  # O_HOH
51    51    1        -0.834000   16.146893    3.104803   69.614390     1   3  -1  # O_HOH
52    52    1        -0.834000   17.263967   22.851743   86.943133    -4   4   0  # O_HOH
53    53    1        -0.834000    7.147437   16.042702   68.663597    -6   2   0  # O_HOH
54    54    1        -0.834000   12.361645    2.808731   43.485894     4   4   0  # O_HOH
55    55    1        -0.834000   24.132833   23.276322   66.803785    -7   9  -1  # O_HOH
56    56    1        -0.834000   16.512718    2.541625   64.432554     5  10   1  # O_HOH
57    57    1        -0.834000    7.443851   15.590151   82.658001     4   5   1  # O_HOH
58    58    1        -0.834000   23.904840    7.625191   15.943492    -2   1   1  # O_HOH
59    59    1        -0.834000    7.735199   22.420154   70.718806    -3   1   0  # O_HOH
60    60    1        -0.834000   17.756823   11.361805   53.130092     6   9   0  # O_HOH
61    61    1        -0.834000    7.434820   23.158228   53.220830    -4   1   0  # O_HOH
62    62    1        -0.834000   14.271041   13.637277   46.288949     8   8   0  # O_HOH
63    63    1        -0.834000    4.808311   15.832341   82.162996   -11   5   0  # O_HOH
64    64    1        -0.834000   23.117918    6.936521   68.686339   -10   4   0  # O_HOH
65    65    1        -0.834000   12.095890    6.829730   76.456525     5  -2   0  # O_HOH
66    66    1        -0.834000   13.095929   17.465665   64.192764   -10   7  -1  # O_HOH
67    67    1        -0.834000    5.235458    0.125322   71.132227     0  13  -1  # O_HOH
68    68    1        -0.834000   10.540048    2.593331   21.592287    -2   7   1  # O_HOH
69    69    1        -0.834000    0.657938   22.388188   30.720369     0   9   0  # O_HOH
70    70    1        -0.834000   15.820430    9.755193   41.694767     3   3   1  # O_HOH
71    71    1        -0.834000   21.003960   21.941820   50.595875    -8  -4   0  # O_HOH
72    72    1        -0.834000   16.585759   18.128930   76.090153     5   4   0  # O_HOH
73    73    1        -0.834000    8.836491    5.863090   59.025862    -3  -2   0  # O_HOH
74    74    1        -0.834000    9.621994   17.013215   59.350743    -5  -2  -1  # O_HOH
75    75    1        -0.834000    8.126073    9.589040   31.500897     1   1  -1  # O_HOH
76    76    1        -0.834000    1.020844    6.203648   67.125164    -7   2   0  # O_HOH
77    77    1        -0.834000   22.714742    0.327319   43.700912     5   4  -1  # O_HOH
78    78    1        -0.834000   11.199568   13.138510   70.063278    -3  10   0  # O_HOH
79    79    1        -0.834000   23.859341   23.168126   46.413540     3  -2   0  # O_HOH
80    80    1        -0.834000   19.578242   14.404584   71.323631    -6   8   0  # O_HOH
81    81    1        -0.834000   12.197032    9.434716   26.235457    -5   5   0  # O_HOH
82    82    1        -0.834000   11.420525    8.288639   48.435474     2  12  -1  # O_HOH
83    83    1        -0.834000   18.066155   17.843925   11.190383     4   3  -2  # O_HOH
84    84    1        -0.834000   21.425744   10.869716   11.359636    -3   9   1  # O_HOH
85    85    1        -0.834000   17.200332   23.421689   43.626721     4   1   0  # O_HOH
86    86    1        -0.834000   19.442336   21.527417    4.345994    -4   3  -1  # O_HOH
87    87    1        -0.834000   12.039653   17.601679   38.222588    10  10   0  # O_HOH
88    88    1        -0.834000    9.278832    0.041154   71.679015     4   0  -1  # O_HOH
89    89    1        -0.834000   16.983412   22.009671   79.310783    -7   4   1  # O_HOH
90    90    1        -0.834000   13.165234    2.988606   68.566422    -5   0   0  # O_HOH
91    91    1        -0.834000    9.310159    2.342589   50.150284    -4   4   1  # O_HOH
92    92    1        -0.834000    4.675844    2.828373   70.282033    -3   4   0  # O_HOH
93    93    1        -0.834000    7.820958   11.823802   26.056788    -5   7   0  # O_HOH
94    94    1        -0.834000    9.317941   19.145609   43.207670     2   6   0  # O_HOH
95    95    1        -0.834000    2.365680    2.138187   33.831261     7  -1  -1  # O_HOH
96    96    1        -0.834000    5.921770    2.762384   80.953613    -4  -3   0  # O_HOH
97    97    1        -0.834000   16.458863    8.870339   15.353110    -8   2   1  # O_HOH
98    98    1        -0.834000    2.001926    3.255970   59.751960    -3   4   0  # O_HOH
99    99    1        -0.834000   18.896247   17.734923   32.227394    -8   3   0  # O_HOH
100   100   1        -0.834000   21.065654   23.821886    3.898353     2  -4   0  # O_HOH
101   101   1        -0.834000    6.212892   22.223265   57.014256     9  -3   0  # O_HOH
102   102   1        -0.834000   19.451085   11.898282   55.549434     3  -5   2  # O_HOH
103   103   1        -0.834000    5.685280    0.312680   51.700504    -3   0  -1  # O_HOH
104   104   1        -0.834000   10.890998   12.904487   80.255960     3  -6   0  # O_HOH
105   105   1        -0.834000   19.384535   12.766458   10.293965    -7   5   0  # O_HOH
106   106   1        -0.834000    4.704494    6.797925   67.782683    -7   9   0  # O_HOH
107   107   1        -0.834000    4.979801   21.857515   70.998139    -6  -1   0  # O_HOH
108   108   1        -0.834000    6.637499   24.259694   47.111540    -1  -8   0  # O_HOH
109   109   1        -0.834000   23.255371   13.542274   41.055967    -1  -2  -1  # O_HOH
110   110   1        -0.834000   17.671476    8.020274   42.238220     2   5   2  # O_HOH
111   111   1        -0.834000   12.715504    2.503891   81.135076    -2   3   0  # O_HOH
112   112   1        -0.834000    7.960135    2.224106   63.455724     2  -1   0  # O_HOH
113   113   1        -0.834000   15.878960    3.229184   51.352606     1   4   0  # O_HOH
114   114   1        -0.834000   13.099118    7.091907   27.717033    -1   3   1  # O_HOH
115   115   1        -0.834000   22.141580   23.159147   75.682477    -4  -2   0  # O_HOH
116   116   1        -0.834000   19.733979   13.211224   67.090821   -11  -4   0  # O_HOH
117   117   1        -0.834000    3.862701   21.630136   47.413112     3   2   1  # O_HOH
118   118   1        -0.834000    4.194383    6.743781   31.999387    -4   2   1  # O_HOH
119   119   1        -0.834000   17.093183   18.729518   55.811278    -2   6   1  # O_HOH
120   120   1        -0.834000   21.557779    1.751693   62.502449    -5   3   0  # O_HOH
121   121   1        -0.834000    9.370504   14.004638   27.063203    -4   5   0  # O_HOH
122   122   1        -0.834000   12.155858   11.464369   59.753053     1   3   1  # O_HOH
123   123   1        -0.834000   18.522357    8.867353   59.096952     6  -3   0  # O_HOH
124   124   1        -0.834000   18.861991   11.506572   50.570170    -4  -3  -1  # O_HOH
125   125   1        -0.834000   14.326176   21.537304   55.609403     5   8   0  # O_HOH
126   126   1        -0.834000   13.405287   21.857901   45.028388     1   7   0  # O_HOH
127   127   1        -0.834000   13.614660    1.957603   23.910115    -5   7   0  # O_HOH
128   128   1        -0.834000    5.341644    8.422552   79.378458    -4   1  -1  # O_HOH
129   129   1        -0.834000   20.857016    4.483024   14.773645    -5   6   1  # O_HOH
130   130   1        -0.834000    2.604084   10.325803   69.310552     6   0  -1  # O_HOH
131   131   1        -0.834000   21.755570    6.082265   16.707499    -2   6   0  # O_HOH
132   132   1        -0.834000   11.279083    9.696618   69.699718     2   9   0  # O_HOH
133   133   1        -0.834000   17.838072    3.624657   23.179948    -3  -6   0  # O_HOH
134   134   1        -0.834000    0.307744    5.748171   58.871726    -3  -9  -1  # O_HOH
135   135   1        -0.834000    1.798152   13.435936   75.199890   -14   6   0  # O_HOH
136   136   1        -0.834000   24.273763   18.468150   68.634779     0   8   0  # O_HOH
137   137   1        -0.834000   17.374603   13.586450   31.048593    -1  -1   1  # O_HOH
138   138   1        -0.834000    1.079582   13.651081   24.177843    -3  -1   0  # O_HOH
139   139   1        -0.834000    0.452723   12.520673   56.996415     5  14   0  # O_HOH
140   140   1        -0.834000   22.158562    1.818421    2.330917     1   9   1  # O_HOH
141   141   1        -0.834000   12.313458   11.138622   49.378513     0  -6   1  # O_HOH
142   142   1        -0.834000   20.065715    5.242487   66.686469     1   7   1  # O_HOH
143   143   1        -0.834000   22.525483   21.852510   28.716095     4   3   0  # O_HOH
144   144   1        -0.834000    7.943381    8.142546   68.153520     2  -1  -1  # O_HOH
145   145   1        -0.834000   23.549716   16.095510   75.346590    -7   2  -1  # O_HOH
146   146   1        -0.834000    0.822292   11.848919   83.854377    -4  -6  -1  # O_HOH
147   147   1        -0.834000   22.377429    0.351410   64.946087     5   3   1  # O_HOH
148   148   1        -0.834000   19.752429   17.057685   43.518298     3   2   0  # O_HOH
149   149   1        -0.834000    9.311407   21.021522   14.073159     2   3  -1  # O_HOH
150   150   1        -0.834000   10.421078   23.385219   82.979852    -3   5   0  # O_HOH
151   151   1        -0.834000    7.746777    9.885542   63.809939     5   0   0  # O_HOH
152   152   1        -0.834000    2.788544   23.843171   54.300754    -1 -11   0  # O_HOH
153   153   1        -0.834000   19.786196    7.143261   62.889831     8   0   1  # O_HOH
154   154   1        -0.834000   10.712379    8.644754   40.304477     0   6  -1  # O_HOH
155   155   1        -0.834000   13.276157   13.796093    4.871814     7   0   0  # O_HOH
156   156   1        -0.834000    8.723780   11.724451   43.020975     0   8  -1  # O_HOH
157   157   1        -0.834000   20.080897   15.504687   33.080944    -5  -3   0  # O_HOH
158   158   1        -0.834000   15.898106   16.338869   79.546324    -5   0   0  # O_HOH
159   159   1        -0.834000    8.570934   21.633071   78.652337    -6   9  -1  # O_HOH
160   160   1        -0.834000   15.164998   15.115121   56.071952     3   0   0  # O_HOH
161   161   1        -0.834000   20.823846   10.628169   65.782837    -1   7   0  # O_HOH
162   162   1        -0.834000    6.302976   10.876000   76.650843    -6  -4   1  # O_HOH
163   163   1        -0.834000   20.508448    5.510571   77.606090    -5   7   1  # O_HOH
164   164   1        -0.834000   23.950238    7.435705   49.661447     0  -2   0  # O_HOH
165   165   1        -0.834000    3.931963    7.420311   73.848755    -6   4  -1  # O_HOH
166   166   1        -0.834000   18.498098   10.834341   72.244524     0   5   0  # O_HOH
167   167   1        -0.834000    2.740296    8.720081   42.284628     2  -2   0  # O_HOH
168   168   1        -0.834000   12.197643   13.849798   49.546202     7  10   1  # O_HOH
169   169   1        -0.834000    8.143118   22.635334   59.585560   -12  10   0  # O_HOH
170   170   1        -0.834000   20.174037   10.728027   74.521366     4  -1   1  # O_HOH
171   171   1        -0.834000   22.634579   17.921483   53.123058    -2  -4   0  # O_HOH
172   172   1        -0.834000    0.025522   13.645552   81.831663    -3   4  -1  # O_HOH
173   173   1        -0.834000    7.079230    9.905557   48.649320     1  -4   0  # O_HOH
174   174   1        -0.834000   19.153633    3.670047   73.803320    -7  -1   1  # O_HOH
175   175   1        -0.834000   15.077946    0.824179   72.844638    -3   2   1  # O_HOH
176   176   1        -0.834000   10.473478    7.412795   28.862255    -9  14   2  # O_HOH
177   177   1        -0.834000    8.557159    9.498605    2.223806     6   3   1  # O_HOH
178   178   1        -0.834000   23.717543   13.895610   71.223219    -1   8   0  # O_HOH
179   179   1        -0.834000   15.958908    9.465096   52.272203     5   5  -1  # O_HOH
180   180   1        -0.834000   20.033413   17.464168   74.244851    -4   7   1  # O_HOH
181   181   1        -0.834000   23.996837    9.928942   78.758360     4  -3  -1  # O_HOH
182   182   1        -0.834000   20.219861    3.126774   21.164390    -8  -3  -1  # O_HOH
183   183   1        -0.834000   18.483224   18.261119   60.866212    -3   6   0  # O_HOH
184   184   1        -0.834000   16.979833    4.909801   78.279259    -1  -4  -1  # O_HOH
185   185   1        -0.834000   10.729672    4.460926   79.628886    -5   2   1  # O_HOH
186   186   1        -0.834000   23.475780    1.697153    6.376776     0  -5   1  # O_HOH
187   187   1        -0.834000    4.669868   13.847723   67.305820     5   7   0  # O_HOH
188   188   1        -0.834000    2.517476   20.746726   73.129541     3   2   0  # O_HOH
189   189   1        -0.834000    5.507606   17.876897   50.222407    -5  -2   0  # O_HOH
190   190   1        -0.834000   17.525348   21.852125   45.820048    -4   2   0  # O_HOH
191   191   1        -0.834000   14.797166   20.137414   75.920252     0  -3   0  # O_HOH
192   192   1        -0.834000    4.694112   13.525846   85.267635   -12   7   0  # O_HOH
193   193   1        -0.834000    2.472807    9.383845   50.771878     0   7   0  # O_HOH
194   194   1        -0.834000   24.396208   18.105389   86.643367    -7   1  -1  # O_HOH
195   195   1        -0.834000    3.995823   12.834804   20.609543     5   0   2  # O_HOH
196   196   1        -0.834000   14.152563   22.710981   79.802573     5  -1   0  # O_HOH
197   197   1        -0.834000    1.019456    6.166530   14.237571     1   6   0  # O_HOH
198   198   1        -0.834000    8.581687   20.372543   40.599792    -1   4   0  # O_HOH
199   199   1        -0.834000   19.780310   13.390475   74.571893     5  -5   0  # O_HOH
200   200   1        -0.834000   17.826860   15.947094   72.883730    -7  -2   0  # O_HOH
201   201   1        -0.834000    6.923013   18.834064   68.846147     0   4   0  # O_HOH
202   202   1        -0.834000   18.082548    0.041181   81.029228     2   1   0  # O_HOH
203   203   1        -0.834000   13.262365   21.135697   67.616199    16  -2   0  # O_HOH
204   204   1        -0.834000   17.554870    0.319875   65.727445     1   4   1  # O_HOH
205   205   1        -0.834000   11.934720    1.704164   17.068540     0  -6   2  # O_HOH
206   206   1        -0.834000    2.269562    7.039639   33.897891    -1   4   0  # O_HOH
207   207   1        -0.834000    6.984932   19.417333   52.107386    11   0   1  # O_HOH
208   208   1        -0.834000   21.764491   15.408713   73.341082    -5   4   0  # O_HOH
209   209   1        -0.834000   21.255779   10.451643   78.331220    -5   1   0  # O_HOH
210   210   1        -0.834000   16.708997   19.121681   78.944143    -1   1  -2  # O_HOH
211   211   1        -0.834000   12.755844   17.278129   13.795116    -2   5   2  # O_HOH
212   212   1        -0.834000   10.966833   20.545499   45.242938     3   4   1  # O_HOH
213   213   1        -0.834000   21.060969   17.295408   27.100942    -2  -3   0  # O_HOH
214   214   1        -0.834000    4.453646   11.219073   52.469722     9   1   0  # O_HOH
215   215   1        -0.834000    2.765512    0.965501   69.027613     3   5  -1  # O_HOH
216   216   1        -0.834000   23.079345    4.984044   13.173529   -10   3   1  # O_HOH
217   217   1        -0.834000    1.549439   22.560825   43.685777    -2   4   0  # O_HOH
218   218   1        -0.834000    0.854603   15.870088   18.892418     4  -6   1  # O_HOH
219   219   1        -0.834000    5.805527    1.847113   31.114283    -4   2   2  # O_HOH
220   220   1        -0.834000    2.119787   15.621420   51.462274    -1  -1   1  # O_HOH
221   221   1        -0.834000    5.195813    5.557475    8.899355    -2  -2   1  # O_HOH
222   222   1        -0.834000   18.216722   11.360418   14.758726    -4   3   2  # O_HOH
223   223   1        -0.834000   13.530995   21.560248   15.841838     2   0   0  # O_HOH
224   224   1        -0.834000   12.160445   13.937777   52.313733   -11  -2   0  # O_HOH
225   225   1        -0.834000    3.403215   18.319829   86.733759    -9  -6   0  # O_HOH
226   226   1        -0.834000    4.887697    5.084057   79.891727     0  -7   0  # O_HOH
227   227   1        -0.834000    8.035045    5.730506   73.863563     5   1   0  # O_HOH
228   228   1        -0.834000    6.354027   20.719082   36.942544     1   8   0  # O_HOH
229   229   1        -0.834000    1.620847    5.161241   49.589786     2   8  -1  # O_HOH
230   230   1        -0.834000    2.903428    8.664896   66.913604     4   1   0  # O_HOH
231   231   1        -0.834000   19.797627   10.365645   18.773165    -6  -6   0  # O_HOH
232   232   1        -0.834000   15.722823   14.072419   72.430981    -5  -5   1  # O_HOH
233   233   1        -0.834000   23.011402    6.925560   77.959305     3   8   0  # O_HOH
234   234   1        -0.834000   16.124385   15.939929   53.460960     0   2   0  # O_HOH
235   235   1        -0.834000    7.249121    6.859525   77.543692    -5  -4  -1  # O_HOH
236   236   1        -0.834000   16.626407   21.628091    3.606616    -6   4   0  # O_HOH
237   237   1        -0.834000   16.751399   18.362114   67.899548    11   3  -1  # O_HOH
238   238   1        -0.834000    2.308997    0.404667    5.564973    -2  -1   0  # O_HOH
239   239   1        -0.834000    5.143176   24.398177   14.427652     3  -4   0  # O_HOH
240   240   1        -0.834000   14.076411   14.793448   66.295925     1   8   0  # O_HOH
241   241   1        -0.834000   11.020760   24.148730   76.020422     2   2   1  # O_HOH
242   242   1        -0.834000   23.104695    8.607655   19.349677    -6   4  -2  # O_HOH
243   243   1        -0.834000   11.076469   11.895981   55.512540    -3   0   0  # O_HOH
244   244   1        -0.834000    4.188794   14.050073   73.633778    -8  11   0  # O_HOH
245   245   1        -0.834000    8.447145   14.020284   70.012352     7  -5   1  # O_HOH
246   246   1        -0.834000    0.357612   22.636218    5.599304    -4   6   0  # O_HOH
247   247   1        -0.834000    5.458252   23.508141   78.397757    -1   2   0  # O_HOH
248   248   1        -0.834000   24.169786    5.986991   38.725419     6   8   0  # O_HOH
249   249   1        -0.834000   18.273448    7.848742   13.258217     0  -2   1  # O_HOH
250   250   1        -0.834000   16.764262    6.992467   82.692374    -2   8   0  # O_HOH
251   251   1        -0.834000   18.206120    8.564339   67.965695     2   2  -1  # O_HOH
252   252   1        -0.834000    1.873249   22.990317   60.889652    -5   2   0  # O_HOH
253   253   1        -0.834000   19.070538   16.654030   55.073320    -7 -10   0  # O_HOH
254   254   1        -0.834000   11.394607   20.879863   58.058737     2   4   0  # O_HOH
255   255   1        -0.834000    9.184455   10.188828   50.472081     3   8  -1  # O_HOH
256   256   1        -0.834000   15.463406   12.008128   59.756570    -8  11   0  # O_HOH
257   257   1        -0.834000   22.312440   16.432201   79.498923    -6   5   0  # O_HOH
258   258   1        -0.834000   17.056162    3.037754   80.682965   -13   7  -1  # O_HOH
259   259   1        -0.834000   22.363102   10.766225   52.226236     0   4   1  # O_HOH
260   260   1        -0.834000   15.000457   19.390049   54.144598    -4   4   0  # O_HOH
261   261   1        -0.834000    7.082253   10.339787   56.858413     2  -3   0  # O_HOH
262   262   1        -0.834000    3.445336   14.732246   17.482083    10   0   2  # O_HOH
263   263   1        -0.834000    8.735186   20.894473   47.156496    -9   5   1  # O_HOH
264   264   1        -0.834000   21.810990    8.241276   14.338167     1  -2   1  # O_HOH
265   265   1        -0.834000    1.559499   18.691310   26.009442   -12   1   0  # O_HOH
266   266   1        -0.834000   19.539573   19.424356    2.268059     2  -4   1  # O_HOH
267   267   1        -0.834000   13.221319   13.234213   72.020208     4  13   1  # O_HOH
268   268   1        -0.834000   17.070337    2.319882   17.303417     0   0   1  # O_HOH
269   269   1        -0.834000   17.917406   16.492401   34.672742    -5  -1   1  # O_HOH
270   270   1        -0.834000   11.664643   23.561616   15.878295     1  -2   1  # O_HOH
271   271   1        -0.834000    5.235208   12.415791    1.037846     3   3   1  # O_HOH
272   272   1        -0.834000   15.082195   19.620408   57.393308     2   8   0  # O_HOH
273   273   1        -0.834000    6.944243   12.357015   53.038072    -4  -3   2  # O_HOH
274   274   1        -0.834000   13.280715   13.807265   11.625927    -3   7   1  # O_HOH
275   275   1        -0.834000   11.462494    7.254191   73.779003    -2   9   0  # O_HOH
276   276   1        -0.834000    7.550623   14.390043   59.754713    -7   2   0  # O_HOH
277   277   1        -0.834000    1.428625   16.954282   70.386176     0   7  -1  # O_HOH
278   278   1        -0.834000    7.384305    1.984754    8.727137     2  -2   1  # O_HOH
279   279   1        -0.834000   15.019274   20.111370   50.174867     4   2   0  # O_HOH
280   280   1        -0.834000    1.052290   15.237084   55.561296    -9   9   1  # O_HOH
281   281   1        -0.834000    8.367684    9.794730   60.053469    -1   1   0  # O_HOH
282   282   1        -0.834000   15.195387   21.137618   42.958171    -5   9   0  # O_HOH
283   283   1        -0.834000   15.818850   22.630987   75.333350    -2   3   0  # O_HOH
284   284   1        -0.834000   22.603421   13.126560   43.845403    -4  -8   1  # O_HOH
285   285   1        -0.834000    2.004624    0.344792   72.666897    -3  -2  -2  # O_HOH
286   286   1        -0.834000   20.436410    2.147670   59.652743    -8  10   0  # O_HOH
287   287   1        -0.834000   15.112408   23.484899   49.776782    -3  -1   0  # O_HOH
288   288   1        -0.834000   10.893027    4.931929   69.574733    -4  11   0  # O_HOH
289   289   1        -0.834000    3.594334    5.758650   47.588096    -5  -1   1  # O_HOH
290   290   1        -0.834000   20.296454   18.039621   58.999592    -5   3   0  # O_HOH
291   291   1        -0.834000   12.451158    3.279734   61.723403    -1  -4   1  # O_HOH
292   292   1        -0.834000   14.468259    7.448249   20.431643     7   9   0  # O_HOH
293   293   1        -0.834000   12.413121    7.442014   51.889912   -12   0   1  # O_HOH
294   294   1        -0.834000   15.271362   13.865626   29.381978     6   0   0  # O_HOH
295   295   1        -0.834000   18.566660    8.523561   49.760710     4   1   0  # O_HOH
296   296   1        -0.834000   12.184035   20.168648   13.651739    -2  -1   0  # O_HOH
297   297   1        -0.834000    4.266699    7.263539   50.365097     4   7   0  # O_HOH
298   298   1        -0.834000   10.121649   22.420921   65.268501    -9   2   0  # O_HOH
299   299   1        -0.834000    4.127730   10.823933   43.814203    13   1   1  # O_HOH
300   300   1        -0.834000   10.774375   17.726565   35.863715     4  -3   0  # O_HOH
301   301   1        -0.834000    9.874666    1.344404   77.967891     3   7   1  # O_HOH
302   302   1        -0.834000   21.301570    4.343820   39.784030    -6   3  -1  # O_HOH
303   303   1        -0.834000   23.016735    3.891126   63.088634     2   1   0  # O_HOH
304   304   1        -0.834000   13.342237    0.233285   69.635062    -5  -8  -1  # O_HOH
305   305   1        -0.834000   16.314796    5.965423   63.808102    -3   1   1  # O_HOH
306   306   1        -0.834000    8.441889   23.411133   68.004261     5   5   0  # O_HOH
307   307   1        -0.834000   12.137111   18.358458   59.155188     1   2   0  # O_HOH
308   308   1        -0.834000    5.433129    8.322674    4.488994     3  -3   1  # O_HOH
309   309   1        -0.834000    4.786244   14.670032   64.374535    -5   1  -1  # O_HOH
310   310   1        -0.834000   23.152723   11.383615   16.015646    -5   4  -1  # O_HOH
311   311   1        -0.834000   16.366260    4.313171   45.705608     3   4   0  # O_HOH
312   312   1        -0.834000    7.858775   16.992180   78.183118     1  -2   0  # O_HOH
313   313   1        -0.834000   24.391477    0.132945   62.543872     0  12  -1  # O_HOH
314   314   1        -0.834000   12.812839   22.193974   40.309359    -6   4   1  # O_HOH
315   315   1        -0.834000   11.017514   23.554242   19.744868     5   4   0  # O_HOH
316   316   1        -0.834000    3.323466   10.620119   85.324964    -5  -4   1  # O_HOH
317   317   1        -0.834000    6.978043   20.978011   54.757538     6   1   0  # O_HOH
318   318   1        -0.834000   12.651963    2.836981   46.835063     6  -6   1  # O_HOH