LAMMPS data file via write_data, version 23 Jun 2022, timestep = 5000000

4768 atoms
16 atom types
2400 bonds
1 bond types
1200 angles
1 angle types

0 24.433001 xlo xhi
0 24.433001 ylo yhi
0 87.6757729587945 zlo zhi
0 0 0 xy xz yz

Masses

1 15.999
2 1.008
3 47.867
4 28.085
5 15.999
6 15.999
7 15.999
8 15.999
9 1.008
10 1.008
11 12.011
12 1.008
13 15.999
14 1.008
15 15.999
16 15.999

Pair Coeffs # lj/cut/coul/long/omp

1 0.1521 3.1507
2 0.046 0.4
3 0.6076 1.958
4 0.044 2.3
5 0.105 3.3
6 0.3321 2.875
7 0.17 3.12
8 0.17 3.12
9 0 0
10 0 0
11 0.066 3.5
12 0.03 2.5
13 0.17 3.12
14 0 0
15 0.17 3.07
16 0.14 2.9

Bond Coeffs # harmonic/omp

1 450 0.9572

Angle Coeffs # harmonic/omp

1 55 104.52

Atoms # full

3611 1 4 1.845105 1.2884200000000061 6.998151000000001 3.081440104104058 0 0 0
2609 1 2 0.417 5.768686235385291 8.659687481825461 7.363991832830623 2 -2 2
3618 1 4 1.845325 3.0646000000000098 0.8904599999999991 17.05262110410406 0 0 0
3623 1 4 1.845302 3.043680000000006 5.21858 17.052771104104078 0 0 0
3625 1 4 1.846668 11.329771000000004 9.174761 10.948940104104063 0 0 0
2246 1 2 0.417 10.998515898092688 7.288009373955254 2.6722257223727346 -2 1 0
3640 1 4 1.84506 6.998091000000007 1.288420000000004 3.081390104104055 0 0 0
3643 1 4 1.845768 9.15275100000001 6.99911 10.944910104104059 0 0 0
3658 1 4 1.845832 0.8898300000000089 10.928021 9.189360104104056 0 0 0
3665 1 4 1.845439 1.2884700000000056 11.326741 3.0603101041040537 0 0 0
465 1 1 -0.834 10.619083010402585 10.142107442493142 0.11705878291330166 2 -3 0
3669 1 4 1.845446 3.0435700000000088 0.8898300000000018 1.3050901041040532 0 0 0
3672 1 4 1.845808 6.998510000000008 9.152101 10.944361104104058 0 0 0
3674 1 4 1.845568 1.288480000000007 9.151891000000003 5.235230104104067 0 0 0
3024 1 2 0.417 12.03280559571732 2.7115200864255113 18.823371856957614 2 12 0
3677 1 4 1.847435 3.0432500000000102 10.926701 11.341820104104055 0 0 0
3678 1 4 1.845267 1.288420000000011 9.173011000000002 0.9065791041040612 0 0 0
1060 1 1 -0.834 7.425460536458641 0.3496236223703649 15.797212580776804 -1 -7 1
3680 1 4 1.846601 4.81896100000001 9.149761 13.120600104104055 0 0 0
3681 1 4 1.845334 3.064850000000009 10.928101 7.014900104104061 0 0 0
3684 1 4 1.844961 6.998390000000011 4.819920000000004 15.27643010410406 0 0 0
177 1 1 -0.834 8.557158671657046 9.49860470710564 2.2238056963119326 6 3 1
3694 1 4 1.844973 0.8897100000000027 3.0649799999999994 17.052811104104084 0 0 0
3698 1 4 1.844911 10.928071000000013 3.0649000000000037 7.014800104104058 0 0 0
3699 1 4 1.845077 9.151951000000011 4.820160000000001 13.12262010410406 0 0 0
2543 1 2 0.417 1.919181830155257 5.1375212616683 8.110242100994824 -1 -6 -1
3701 1 4 1.845178 9.172981000000007 1.288410000000006 0.906530104104057 0 0 0
3702 1 4 1.845636 10.928151000000009 3.0437800000000075 11.34321010410406 0 0 0
3305 1 2 0.417 9.097300263537228 11.244138822859435 5.101643648666984 -5 0 0
3705 1 4 1.84555 9.15185100000001 1.2884700000000002 5.235130104104062 0 0 0
1206 1 2 0.417 10.846501918539452 8.103672661644524 6.295343834277192 1 -12 1
3711 1 4 1.845183 4.819920000000007 6.997950999999999 15.276091104104065 0 0 0
3244 1 2 0.417 7.748366682857405 5.608281116560687 4.198822728127441 1 9 1
3730 1 4 1.845565 11.326731000000015 1.2884400000000031 3.060250104104052 0 0 0
3737 1 4 1.845151 10.928081000000006 0.8899500000000042 9.189540104104063 0 0 0
3740 1 4 1.845366 5.2187110000000105 3.04401 17.052901104104066 0 0 0
3741 1 4 1.846638 9.17349100000001 11.327971000000003 10.946220104104054 0 0 0
3744 1 4 1.845304 5.218431000000005 3.0647000000000006 1.3051001041040564 0 0 0
3756 1 4 1.840565 4.81367000000001 11.323361 15.290771104104056 0 0 0
3759 1 4 1.845208 5.218670000000008 10.928101 9.168330104104054 0 0 0
3762 1 4 1.845206 3.0646700000000084 5.21847 1.3051101041040525 0 0 0
3778 1 4 1.845073 10.928131000000008 5.218880000000002 9.168460104104062 0 0 0
3781 1 4 1.844732 11.327181000000012 4.820321000000003 15.297650104104058 0 0 0
4425 1 5 -0.925303 3.5592400000000115 8.657641 18.341681104104058 0 0 0
1610 1 2 0.417 11.283606600215217 2.2348496314739994 16.60956667654372 0 -6 2
3792 1 4 1.845401 0.8898200000000092 3.04359 1.3050901041040568 0 0 0
3992 1 5 -0.9255989999999999 2.549490000000008 6.1082610000000015 2.566150104104061 0 0 0
4003 1 5 -0.925737 3.558810000000007 6.1082610000000015 15.791881104104057 0 0 0
4005 1 5 -0.925322 12.216491000000005 8.65815 9.684930104104058 0 0 0
4010 1 5 -0.925557 7.105427357601002e-15 2.549469999999998 15.79186110410406 0 0 0
4016 1 5 -0.925578 6.108261000000004 2.5494999999999983 2.5661401041040577 0 0 0
4018 1 5 -0.925522 9.66703100000001 6.108361000000003 9.68382010410406 0 0 0
3976 1 4 1.795198 9.129961000000009 11.287071000000001 19.654041104104067 0 0 0
4040 1 5 -0.92604 6.108251000000006 9.666841000000002 9.683520104104069 0 0 0
4042 1 5 -0.925767 2.5495400000000057 9.667021 6.124860104104055 0 0 0
2920 1 2 0.417 6.334781348074936 7.24493789599652 0.7444897080620597 4 -2 3
4241 1 5 -0.911138 6.187520000000012 2.5494600000000016 18.262111104104058 0 0 0
4045 1 5 -0.92717 3.5580800000000097 9.666170999999997 12.232420104104062 0 0 0
4047 1 5 -0.925764 6.108280000000011 3.5587100000000023 15.791751104104074 0 0 0
4048 1 5 -0.926607 8.658851000000011 12.215501000000003 9.683170104104057 0 0 0
2366 1 2 0.417 6.349495594487294 10.923617117515501 3.8789079683433343 11 7 1
4058 1 5 -0.925673 12.216411000000011 3.558570000000005 14.782711104104067 0 0 0
4059 1 5 -0.925694 9.66701100000001 2.549540000000004 6.1248901041040575 0 0 0
4060 1 5 -0.925786 9.666981000000007 3.5587000000000026 12.23313010410406 0 0 0
4197 1 5 -0.910836 2.549290000000008 6.187530000000002 18.261781104104067 0 0 0
2602 1 2 0.417 0.45270609693004066 3.0026373657379652 6.626543934086332 -1 3 0
4071 1 5 -0.925798 9.666981000000005 0 8.674410104104059 0 0 0
1816 1 2 0.417 4.570881124097279 8.000831376025538 4.225978688461505 3 -3 1
4091 1 5 -0.964471 0.7544200000000088 7.969989999999998 1.8783691041040633 0 0 0
2215 1 2 0.417 4.331502360940931 2.0047754530850592 7.2617502411130985 -3 -2 0
4105 1 5 -0.964966 10.355691000000007 7.970651000000003 11.479280104104056 0 0 0
705 1 1 -0.834 6.277454989048981 7.855441398629112 7.261159633285137 2 -2 2
4117 1 5 -0.96449 7.970000000000012 0.7544200000000015 1.8783801041040498 0 0 0
4130 1 5 -0.964657 1.8616700000000073 11.462161000000004 7.9864701041040655 0 0 0
4135 1 5 -0.964603 0.7544100000000091 10.354711000000002 4.263090104104054 0 0 0
4098 1 5 -0.96429 1.861660000000004 1.8617799999999962 17.58700110410407 0 0 0
4138 1 5 -0.96458 4.246490000000012 1.8617699999999966 0.7710301041040566 0 0 0
4140 1 5 -0.965205 7.970171000000011 10.354811000000002 11.478510104104057 0 0 0
4142 1 5 -0.96261 5.353950000000011 7.969921000000003 16.479521104104077 0 0 0
4143 1 5 -0.963475 4.246460000000007 11.461651 10.371080104104067 0 0 0
1203 1 2 0.417 5.777370418804692 4.007501656913353 7.320634336686197 -11 1 2
4145 1 5 -0.964625 5.351910000000011 10.351520999999998 14.092350104104064 0 0 0
4146 1 5 -0.963604 7.970021000000005 5.353431000000004 16.47944110410407 0 0 0
3909 1 4 1.843105 11.325481000000007 9.148661 19.630761104104057 0 0 0
4154 1 5 -0.964356 11.46208100000001 1.8617700000000037 7.986590104104069 0 0 0
4155 1 5 -0.96457 10.35472100000001 5.3538600000000045 14.094880104104075 0 0 0
4156 1 5 -0.964436 11.462091000000012 4.246510000000004 10.371270104104056 0 0 0
4157 1 5 -0.964578 10.35472100000001 0.7544200000000034 4.263100104104059 0 0 0
4103 1 5 -0.964211 4.246370000000012 4.246410000000004 17.586971104104062 0 0 0
4175 1 5 -0.964541 1.8617700000000108 4.2464900000000005 0.7710301041040531 0 0 0
4185 1 5 -0.910616 0.07930000000001239 6.028960000000001 3.5752701041040535 0 0 0
4191 1 5 -0.910698 0.07921000000000866 0.07936999999999907 14.782721104104056 0 0 0
4195 1 5 -0.911428 2.5462800000000083 12.133431 12.310220104104054 0 0 0
4196 1 5 -0.910917 0.07926000000000855 8.657820999999997 6.2041101041040525 0 0 0
4210 1 5 -0.910655 6.028960000000008 0.07929000000000208 3.575279104104063 0 0 0
4211 1 5 -0.910802 8.658011000000009 6.029201000000003 12.15371010410406 0 0 0
4227 1 5 -0.910466 3.558670000000012 12.137191 6.045560104104057 0 0 0
475 1 1 -0.834 2.2814608984166425 1.1973404033959996 12.673025916296382 -3 -8 2
4230 1 5 -0.911308 6.029111000000009 8.657240999999999 12.153051104104058 0 0 0
1594 1 2 0.417 1.6691321066432268 5.4850238859390075 14.409915481379963 1 6 0
1678 1 2 0.417 5.227300463529747 0.7310093212461193 13.859626230402803 3 -3 0
4234 1 5 -0.910697 6.0290110000000094 6.028850000000001 14.782650104104075 0 0 0
4235 1 5 -0.911341 6.1877200000000085 12.136410999999999 8.673600104104057 0 0 0
278 1 1 -0.834 7.384305059372314 1.9847538231809005 8.727137141824036 2 -2 1
4239 1 5 -0.911054 12.137181000000009 2.5495600000000054 12.31243010410406 0 0 0
4240 1 5 -0.91054 12.137201000000008 3.5586499999999988 6.045580104104058 0 0 0
672 1 1 -0.834 2.453880245089896 5.912456467695374 8.282883100318283 -2 -6 -1
1196 1 1 -0.834 2.02933056364997 11.080316132274621 19.893718767695805 -2 8 -1
1219 1 2 0.417 8.736306424700603 9.452627775635635 6.533063937566709 -2 -4 0
4245 1 5 -0.910844 8.657841000000005 0.07929000000000566 6.204160104104054 0 0 0
4248 1 5 -0.910945 12.137201000000008 6.187781000000005 8.674410104104053 0 0 0
2544 1 2 0.417 1.933586264683228 6.431202174671397 8.896421167314994 -2 -6 -1
4279 1 5 -0.889745 1.7877600000000113 7.88872 4.344450104104055 0 0 0
3475 1 2 0.417 1.2636509916319576 10.319465846951562 17.377231614943735 -3 4 2
4286 1 5 -0.889855 4.327950000000009 1.7804700000000029 16.55365110410406 0 0 0
4291 1 5 -0.889661 1.7804800000000096 4.327790000000003 16.553581104104076 0 0 0
4293 1 5 -0.8898239999999999 10.436671000000013 10.436071000000002 10.446960104104074 0 0 0
1138 1 1 -0.834 0.5813328732863655 9.694006762256146 17.133357046173668 -3 4 2
4305 1 5 -0.8897350000000001 7.888710000000009 1.7877600000000022 4.344440104104054 0 0 0
4307 1 5 -0.8898509999999999 7.888971000000005 7.888671 10.445420104104059 0 0 0
4320 1 5 -0.890578 1.7800100000000083 10.427861 10.451890104104056 0 0 0
4325 1 5 -0.889752 1.787760000000008 10.436091000000001 1.797079104104061 0 0 0
4043 1 5 -0.925636 2.549490000000008 8.657790999999998 0.01662010410405657 0 0 0
4328 1 5 -0.889651 1.7804400000000111 1.7804400000000007 1.8043791041040578 0 0 0
2687 1 2 0.417 0.42232078938130263 6.533547655773491 10.806728876341143 0 6 -1
4331 1 5 -0.890612 4.31874000000001 10.435811000000001 16.560260104104074 0 0 0
4332 1 5 -0.890507 4.320060000000007 7.887921000000002 14.013361104104078 0 0 0
4333 1 5 -0.889891 4.32776000000001 10.428600999999999 7.905260104104057 0 0 0
4334 1 5 -0.889827 7.888761000000007 4.320450000000004 14.01340110410408 0 0 0
4244 1 5 -0.910698 6.187520000000012 3.5586599999999997 0.09590910410406295 0 0 0
4341 1 5 -0.8896810000000001 10.428741000000006 4.327870000000003 7.9053901041040655 0 0 0
4342 1 5 -0.889705 10.43608100000001 1.7877600000000042 1.7970701041040584 0 0 0
4343 1 5 -0.889857 10.428741000000006 1.780440000000004 10.452720104104058 0 0 0
4344 1 5 -0.889914 10.436251000000013 4.320210000000004 16.560491104104056 0 0 0
3243 1 2 0.417 9.154803617407707 6.157681096349604 4.308321684626739 1 9 1
4360 1 5 -0.889553 4.327800000000012 4.327810999999998 1.8043791041040471 0 0 0
3676 1 4 1.843465 4.81890000000001 9.173221 17.449511104104058 0 0 0
1755 1 2 0.417 7.100604844276065 1.0720214114389417 8.778766569489393 2 -2 1
1642 1 2 0.417 4.279472036572508 5.695529850180519 8.659578521855103 -2 -2 1
3703 1 4 1.846027 9.173261000000007 4.819469999999999 17.450861104104057 0 0 0
1742 1 2 0.417 5.6256460177740175 11.721373980919731 0.507209262192349 3 3 1
4442 1 5 -0.925949 8.657750000000005 3.55846 18.341181104104066 0 0 0
3306 1 2 0.417 8.871079189413907 9.93054461562911 4.383876609966599 -5 0 0
523 1 1 -0.834 10.975446131003766 8.219189909954514 2.892685360628488 -2 1 0
860 1 1 -0.834 6.099897656530659 8.146761101974535 0.9630681751002537 4 -2 3
791 1 1 -0.834 1.5243244965176836 3.538526641285008 10.974564873578448 -1 7 1
2129 1 2 0.417 10.32266917805759 11.001059997897423 0.4180092788480522 2 -3 0
3075 1 2 0.417 8.914420798771243 1.600882570711355 15.201510477047526 -3 6 1
2816 1 2 0.417 7.4301426745244115 1.5990287730531296 12.679732116861123 8 4 1
448 1 1 -0.834 9.556660717246531 4.480442001418703 2.3577567016852545 0 -1 1
308 1 1 -0.834 5.4331292315834725 8.322674406315697 4.488994098516378 3 -3 1
3455 1 2 0.417 6.872491672477713 2.9085607711934838 10.097500099653663 -1 4 0
1641 1 2 0.417 5.674503690449909 6.230526725374131 8.41552883257852 -2 -2 1
1554 1 2 0.417 9.366255243630347 9.031682107232257 2.432558847314663 6 3 1
3101 1 2 0.417 2.8178355127802805 6.4358932743250925 11.287313235238873 -13 6 0
2899 1 2 0.417 4.488803935928283 4.935452243183266 4.640564383563946 -3 5 1
3320 1 2 0.417 6.923299253699121 0.2933255209365679 14.984257179451257 -1 -7 1
238 1 1 -0.834 2.3089972700515635 0.4046669820279665 5.564973097454818 -2 -1 0
1677 1 2 0.417 4.531674071381152 0.239331098021552 15.111126036856618 3 -4 0
2023 1 2 0.417 10.49716058752704 10.290173485753026 7.405333484153205 -6 -5 0
2365 1 2 0.417 5.382032695810412 9.93999618288734 3.2556899178820395 11 7 1
4623 1 5 -0.912327 9.668181000000011 6.0275410000000065 18.419991104104064 0 0 0
2324 1 2 0.417 2.392087382298397 4.723278348985901 5.246651397851481 1 3 1
2815 1 2 0.417 7.985103862179456 1.4546727887812658 11.278634417857353 8 4 1
3859 1 4 1.833423 6.98422100000001 9.139321 19.63143110410406 0 0 0
508 1 1 -0.834 3.6964294883896556 1.5112671639004271 7.780753001253458 -3 -2 0
3981 1 4 1.845791 9.162741000000008 6.9905710000000045 19.62848110410407 0 0 0
3 1 1 -0.834 11.545915158146482 7.911514029607773 5.67074150476624 1 -12 1
446 1 1 -0.834 1.996961223937416 0.8135315332623122 9.77067385314352 5 1 0
850 1 1 -0.834 5.280593519669023 5.458452619751388 4.514978676113319 -3 5 1
1868 1 2 0.417 8.928542444198587 0.7265559639761119 18.370952465713007 0 -7 2
4609 1 5 -0.913891 6.029830000000008 9.667801 18.421961104104057 0 0 0
744 1 1 -0.834 1.1253591482205774 7.151393340161425 10.606140633444655 0 6 -1
3102 1 2 0.417 4.057002420463532 5.65931033757799 10.895803819156857 -13 6 0
2095 1 2 0.417 10.364627841001488 4.961585412771162 2.53642427777083 0 -1 1
2096 1 2 0.417 9.791522596591179 3.8672285438660396 1.6613077912939913 0 -1 1
701 1 1 -0.834 1.2422996972689213 3.2795089171545624 7.09142668330609 -1 3 0
3870 1 4 1.845646 3.0433600000000087 7.396120000000001 19.23115110410409 0 0 0
2688 1 2 0.417 0.7169778307341502 8.013501935258715 10.685041482160642 0 6 -1
912 1 1 -0.834 11.9955996545226 3.4901545861266987 19.37886792940453 2 12 0
4544 1 5 -0.951095 10.356821000000005 10.350111000000002 19.10248110410407 0 0 0
2086 1 2 0.417 2.8451095801941118 3.2796780526539155 13.216057083668066 -2 -7 2
3076 1 2 0.417 10.26800234761551 1.3697511541715206 14.564101298305891 -3 6 1
1553 1 2 0.417 8.84173964462027 10.253205815538685 1.7082257406754182 6 3 1
562 1 1 -0.834 3.01511546006075 4.066593243078699 4.935472012008149 1 3 1
3441 1 2 0.417 9.038699266474579 6.724375952013949 1.4620612228191885 3 -3 0
1121 1 1 -0.834 8.948263863675269 6.79426861474241 0.511709540924042 3 -3 0
483 1 1 -0.834 5.505030926826227 0.20520017231789692 9.7832526942373 -3 0 2
3891 1 4 1.845288 7.396680000000009 3.0443300000000044 19.23098110410406 0 0 0
1756 1 2 0.417 7.05638222048639 2.2905221489101555 7.881439684949965 2 -2 1
951 1 1 -0.834 3.280635407156049 5.614742551115177 11.453925531822808 -13 6 0
4517 1 5 -0.960638 7.900771000000009 7.8938700000000015 19.094741104104074 0 0 0
1609 1 2 0.417 11.83470470000651 0.827554072700295 16.69734667597817 0 -6 2
4232 1 5 -0.910716 3.5586600000000086 6.187520000000001 0.09589910410405267 0 0 0
3591 1 2 0.417 1.5662496485125672 10.255067317859716 19.749662174502586 -2 8 -1
1053 1 1 -0.834 8.691358847468601 10.383779610437005 5.207594088886835 -5 0 0
938 1 1 -0.834 9.722836067031837 2.051372644935662 14.957061495785597 -3 6 1
4062 1 5 -0.925597 8.657781000000007 2.5495 0.016620104104049464 0 0 0
205 1 1 -0.834 11.934719567816211 1.704163771335881 17.06853976743764 0 -6 2
1220 1 2 0.417 8.086413099937818 8.554081115898624 7.563669501902957 -2 -4 0
10 1 1 -0.834 8.885852612748746 9.050611210064707 7.388780287185892 -2 -4 0
221 1 1 -0.834 5.19581257321722 5.55747453508928 8.899354651580618 -2 -2 1
1204 1 2 0.417 5.747456099164007 3.590700966055315 5.865547532210896 -11 1 2
1815 1 2 0.417 6.03454349249331 7.615263487637499 4.256394488830856 3 -3 1
2 1 1 -0.834 5.842892324755413 3.240773312037763 6.7513660432440465 -11 1 2
2610 1 2 0.417 6.295359103411785 7.701921970485709 6.316520504149333 2 -2 2
406 1 1 -0.834 5.630712786182031 2.392745524194963 13.005154887682922 5 0 0
2011 1 2 0.417 6.098636080027803 2.732877239361163 12.24253431056446 5 0 0
2245 1 2 0.417 11.181071574528035 8.249766590657183 3.8270381372746725 -2 1 0
2900 1 2 0.417 5.359168348375638 5.5507237822223034 3.5654820222873918 -3 5 1
2781 1 2 0.417 2.1271640136159116 4.275216197555441 11.075087787966572 -1 7 1
2216 1 2 0.417 3.2103507941399 0.9950567202673387 7.137724128080194 -3 -2 0
2323 1 2 0.417 2.829321912842768 3.2902277940020643 5.463647483551947 1 3 1
2601 1 2 0.417 1.7009921163233548 2.4637451220778837 7.29233099327891 -1 3 0
2150 1 2 0.417 1.7378631865544953 1.6906405138463982 12.058706466858926 -3 -8 2
583 1 1 -0.834 5.544332608473857 10.877171350846806 3.363362390236056 11 7 1
2919 1 2 0.417 6.919470022275433 8.543354748409818 1.2584433692183692 4 -2 3
443 1 1 -0.834 3.418617064354019 3.87957100798074 13.692973697990963 -2 -7 2
412 1 1 -0.834 11.218569388640677 10.858960827322015 7.136480094519423 -6 -5 0
3592 1 2 0.417 1.809327374442968 11.615260951394994 19.131049449304122 -2 8 -1
1128 1 1 -0.834 6.549267381381904 3.54185407742709 10.738356947380083 -1 4 0
2085 1 2 0.417 3.5593301591390474 4.60841816501989 13.088644706030786 -2 -7 2
2012 1 2 0.417 5.345380832588959 3.1736090315131564 13.479570041315585 5 0 0
3456 1 2 0.417 6.094409501674901 4.20186524185434 10.215173020671365 -1 4 0
808 1 1 -0.834 7.987878044776805 1.0382977827016833 12.140525414468259 8 4 1
1022 1 1 -0.834 8.238434993426797 6.428714462768187 4.253173663668504 1 9 1
2091 1 2 0.417 2.6505558036066486 1.128387298330975 9.146244531646579 5 1 0
2149 1 2 0.417 2.3347751948820314 0.31958938038348295 12.294948276702979 -3 -8 2
1593 1 2 0.417 1.214173529074816 6.464520216671401 13.34902204789362 1 6 0
197 1 1 -0.834 1.0194561554483454 6.166529781605524 14.237570698403797 1 6 0
1867 1 2 0.417 8.833737704399102 0.12068081974042577 16.98682001383403 0 -7 2
2092 1 2 0.417 1.6071615511761805 1.6096216919793485 10.131961167277387 5 1 0
1316 1 2 0.417 0.03354186318173907 7.221624356922854 15.281784892169716 -1 1 1
1676 1 2 0.417 2.5577599698189553 0.1856165917804 4.666994313855898 -2 -1 0
2782 1 2 0.417 0.6537599694321253 3.9278862499201472 11.0567131650152 -1 7 1
2983 1 2 0.417 11.811108295556084 4.394236031622223 0.0565059442103562 6 12 0
2024 1 2 0.417 10.803039988511793 11.539617461228532 6.607071041985367 -6 -5 0
2130 1 2 0.417 11.469813128288326 10.020545129200965 0.538618745370189 2 -3 0
1741 1 2 0.417 5.132567275771871 12.025596183031919 1.9058577032952038 3 3 1
3442 1 2 0.417 9.357280392505983 5.998098915764044 0.17251752211363683 3 -3 0
2165 1 2 0.417 4.839392718350828 0.7173863339150278 9.324098021013027 -3 0 2
1288 1 2 0.417 11.160292781195645 12.154536581971124 4.505757202256567 -1 1 2
1315 1 2 0.417 0.02359197741583481 8.292016252043824 16.352325593319925 -1 1 1
4724 1 5 -0.8896500000000001 10.428741000000011 1.7804700000000029 34.885702104104084 0 0 0
4714 1 5 -0.889823 7.888661000000005 4.320490000000001 38.4465721041041 0 0 0
4712 1 5 -0.889812 4.320490000000009 7.888661 38.44657210410407 0 0 0
4700 1 5 -0.8896269999999999 1.7804700000000082 10.428740999999999 34.88568210410406 0 0 0
3816 1 4 1.845302 11.326741000000007 9.17294 35.37775210410406 0 0 0
4687 1 5 -0.889723 7.888691000000007 7.888691000000002 34.87833210410406 0 0 0
4673 1 5 -0.889794 10.436071000000009 10.436051 34.8783521041041 0 0 0
3834 1 4 1.845091 9.151801000000008 6.998061000000002 35.37777210410408 0 0 0
3849 1 4 1.844918 0.8898000000000064 10.928071000000003 33.62267210410406 0 0 0
4619 1 5 -0.910867 12.137231000000012 2.5495900000000056 36.7454121041041 0 0 0
4614 1 5 -0.911116 6.028960000000008 6.028960000000001 39.21571210410408 0 0 0
4610 1 5 -0.910687 6.02894000000001 8.657849999999998 36.58683210410406 0 0 0
3863 1 4 1.844993 6.998081000000009 9.151761 35.37779210410406 0 0 0
4591 1 5 -0.910754 8.657841000000005 6.028950000000002 36.58683210410406 0 0 0
4575 1 5 -0.910815 2.5495900000000082 12.137241000000003 36.74541210410409 0 0 0
3868 1 4 1.845314 3.04357000000001 10.928071000000003 35.77643210410406 0 0 0
4571 1 5 -0.911096 0.07928000000000782 0.07928999999999854 39.21571210410408 0 0 0
4536 1 5 -0.964493 11.462081000000008 4.246470000000004 34.8043521041041 0 0 0
3871 1 4 1.845267 4.819841000000009 9.151761 37.55606210410406 0 0 0
4535 1 5 -0.964514 10.354761000000005 5.353830000000005 38.52788210410405 0 0 0
3875 1 4 1.845752 6.998040000000009 4.819831000000001 39.70976310410411 0 0 0
4525 1 5 -0.964489 5.353830000000007 10.354761 38.52788210410405 0 0 0
4523 1 5 -0.964491 4.24647000000001 11.462081000000003 34.8043521041041 0 0 0
3890 1 4 1.845274 9.151771000000005 4.819851 37.55605310410406 0 0 0
4520 1 5 -0.964299 7.970000000000007 10.354751000000002 35.91174210410411 0 0 0
4485 1 5 -0.964342 10.354731000000008 7.970021000000003 35.91169210410409 0 0 0
3893 1 4 1.84547 10.928091000000009 3.0436100000000015 35.77643210410406 0 0 0
4441 1 5 -0.925706 9.666961000000008 3.558750000000004 36.666122104104076 0 0 0
4439 1 5 -0.925417 12.216491000000005 3.5587400000000002 39.21564210410406 0 0 0
4429 1 5 -0.92582 8.657801000000008 12.216471 34.11662210410405 0 0 0
3902 1 4 1.845757 4.819831000000007 6.99803 39.70977310410406 0 0 0
3869 1 4 1.844608 1.2880600000000069 9.172960999999999 25.339591104104077 0 0 0
4426 1 5 -0.925693 3.558760000000011 9.666971000000002 36.666122104104076 0 0 0
3928 1 4 1.844895 10.928131000000008 0.8899000000000028 33.622682104104086 0 0 0
3932 1 4 1.845227 9.173001000000006 11.326641 35.37780210410408 0 0 0
4421 1 5 -0.925787 6.108270000000008 9.666971000000002 34.116612104104064 0 0 0
3947 1 4 1.844831 4.819851000000007 11.326641 39.730932104104106 0 0 0
807 1 1 -0.834 9.357595925806255 9.489445837996252 27.47363859229118 -2 -3 1
4399 1 5 -0.925796 9.666971000000009 6.108251 34.116612104104064 0 0 0
3386 1 2 0.417 6.796855179288478 3.5116293458571928 33.694541709100335 -11 -7 1
3972 1 4 1.844876 11.326661000000012 4.819851000000001 39.730922104104096 0 0 0
502 1 1 -0.834 10.034447293859387 5.5167953569537005 25.563394795061544 -6 4 1
2463 1 2 0.417 4.130922640226312 4.6145237813475015 29.129704457759424 -3 8 0
4382 1 5 -0.925444 3.5587500000000074 12.216481000000003 39.21565210410408 0 0 0
464 1 1 -0.834 1.9156366149921074 7.513768968865119 36.669400876734215 7 2 1
1133 1 1 -0.834 2.489048012918134 0.6051332205914465 31.059163858668462 1 5 2
3036 1 2 0.417 6.062389826743568 6.945010012771153 26.81236058112138 -1 8 1
4555 1 5 -0.964769 1.861750000000008 4.24639 25.204101104104062 0 0 0
3007 1 2 0.417 7.330648728792723 8.91148194397069 24.11174192694183 10 -4 1
510 1 1 -0.834 2.876930378494799 2.1917143175365115 38.04426955732664 -7 8 0
2057 1 2 0.417 6.781743967921795 7.18153202166493 33.381275839400104 3 3 -1
3892 1 4 1.845132 9.173031000000009 1.288840000000004 25.339731104104086 0 0 0
564 1 1 -0.834 1.0675085789266296 0.5356388216775634 36.456233436698696 -7 -6 0
2473 1 2 0.417 3.058388604046737 2.5689778438762305 29.15929807331733 6 5 1
4565 1 5 -0.910432 0.07927000000000817 6.028931000000001 28.00830210410406 0 0 0
1949 1 2 0.417 4.846471245316726 0.8957760737917733 36.587746795948654 0 1 0
3878 1 4 1.847951 7.397051000000012 5.21798 21.40662110410407 0 0 0
1385 1 2 0.417 7.785945215551478 11.87744754395348 25.10173418868178 -5 7 0
4682 1 5 -0.889908 7.896041000000012 1.7804300000000046 20.121631104104075 0 0 0
4662 1 5 -0.889954 1.7803700000000067 7.896120000000003 20.12181110410408 0 0 0
3872 1 4 1.845285 3.0646900000000077 10.928001 31.447852104104093 0 0 0
933 1 1 -0.834 9.241882098109606 7.775121113369821 23.269667482716905 2 2 0
2192 1 2 0.417 6.68885530320043 11.682389076513992 23.06731549828769 -1 9 0
3470 1 2 0.417 4.5151527824485775 0.4337370752960949 34.258993782820156 -10 7 1
4731 1 5 -0.891439 10.42605100000001 7.887250000000004 20.125401104104064 0 0 0
4607 1 5 -0.910734 3.558660000000005 12.137171 30.478622104104062 0 0 0
4452 1 5 -0.925543 9.66701100000001 2.000000000101921e-05 33.10740210410406 0 0 0
1335 1 2 0.417 10.988320857051558 3.0239644870132087 20.864387222848862 -2 7 1
2372 1 2 0.417 10.366571725476547 11.548212329441679 28.472504688288446 -10 2 0
1552 1 2 0.417 10.149028116571927 6.649430718881835 29.33999961043713 -9 14 2
1349 1 2 0.417 9.068409273685834 9.702836154593697 31.377267905756177 1 1 -1
4534 1 5 -0.964414 11.462071000000005 1.8617400000000028 32.419622104104064 0 0 0
904 1 1 -0.834 6.6719413042180955 9.107249568964304 24.778083742854577 10 -4 1
118 1 1 -0.834 4.194382958449538 6.743781472909301 31.99938663050842 -4 2 1
3921 1 4 1.845518 11.326861000000008 1.2884800000000018 27.493351104104057 0 0 0
1237 1 2 0.417 11.03759490717575 4.541058753124637 24.217658927429316 -5 2 -1
4440 1 5 -0.925671 9.667011000000015 2.5495400000000026 30.55789210410409 0 0 0
447 1 1 -0.834 10.60964123622611 10.124651702667814 23.893492297667258 8 0 -1
4423 1 5 -0.925712 2.5495300000000043 9.667000999999999 30.557862104104068 0 0 0
19 1 1 -0.834 11.747620140091158 4.072306292943049 23.779062126883808 -5 2 -1
2813 1 2 0.417 8.470590722572856 9.4668955349859 27.832727884040835 -2 -3 1
3865 1 4 1.845301 1.288390000000009 9.151751000000003 29.66818110410409 0 0 0
4590 1 5 -0.910604 6.029070000000011 0.07937000000000083 28.00831210410407 0 0 0
3281 1 2 0.417 0.5641416698074417 5.673918068024463 31.308572412307274 -1 -3 1
2701 1 2 0.417 0.40735306317232345 9.597151138730906 38.214629230018254 9 4 0
4620 1 5 -0.910568 12.137191000000007 3.558660000000005 30.478582104104067 0 0 0
4625 1 5 -0.910998 8.657841000000001 0.07925999999999966 30.637142104104058 0 0 0
1436 1 2 0.417 5.08305309573242 7.095872312175329 32.04967871017262 -4 2 1
2219 1 2 0.417 2.55986546378001 3.080563409645111 37.88411651692474 -7 8 0
1350 1 2 0.417 7.744377417155741 9.807523992836304 30.65071758964869 1 1 -1
3889 1 4 1.845075 10.928151000000009 3.064800000000004 31.447802104104078 0 0 0
2058 1 2 0.417 7.394459743045451 8.183757263174076 32.42627889742371 3 3 -1
3385 1 2 0.417 6.4961881007693005 2.527707728988079 34.8051239194703 -11 -7 1
3896 1 4 1.845515 9.151931000000005 1.2884599999999988 29.668222104104068 0 0 0
4713 1 5 -0.8897699999999999 4.327840000000009 10.428741000000004 32.338322104104094 0 0 0
2191 1 2 0.417 8.142652988436506 12.103158589548086 23.030975478673902 -1 9 0
4628 1 5 -0.911015 12.13722100000001 6.187540000000003 33.10746210410409 0 0 0
2220 1 2 0.417 2.2905087170089167 1.6323167355645631 37.5349406926995 -7 8 0
4524 1 5 -0.96589 4.245060000000009 6.860460999999999 20.20280110410406 0 0 0
3465 1 2 0.417 3.3873878981534595 0.4407697334871123 31.345872669512445 1 5 2
1435 1 2 0.417 4.044377462942694 6.603499738472937 31.06447955401955 -4 2 1
1389 1 2 0.417 2.562057096112108 1.6480431875071824 33.03287050934624 7 -1 -1
1093 1 1 -0.834 7.21951746788038 2.9711900961011435 34.362009949019864 -11 -7 1
1238 1 2 0.417 11.332719256335325 3.6655296399409623 23.018390148137872 -5 2 -1
2709 1 2 0.417 4.976101531966758 5.082482081749525 32.03030174952848 -6 -3 -1
95 1 1 -0.834 2.365680377668782 2.1381869318596323 33.83126085652537 7 -1 -1
4383 1 5 -0.925488 1.000000001205592e-05 9.666991000000003 33.10738210410408 0 0 0
3008 1 2 0.417 6.5565172781521275 10.056243179134473 24.729914576810053 10 -5 1
2094 1 2 0.417 9.904118959816548 10.61470974617008 23.471220707385815 8 0 -1
68 1 1 -0.834 10.540047934143862 2.593331300040922 21.592287159686787 -2 7 1
1117 1 1 -0.834 6.993464069027615 9.20437475420751 28.67239939072797 -6 -1 1
4537 1 5 -0.964535 10.354711000000012 0.7544100000000019 28.69608210410406 0 0 0
3969 1 4 1.845626 10.928101000000007 5.218500000000001 33.601502104104064 0 0 0
2464 1 2 0.417 3.6388527803158537 5.873983223577568 28.448878186725672 -3 8 0
2064 1 2 0.417 1.4268658547762412 4.455387915833945 36.51860671803778 -6 8 0
2093 1 2 0.417 10.460451915449056 9.215969845530779 23.632203771894613 8 1 -1
3323 1 2 0.417 7.195429148565828 6.392834021986827 30.547739842976572 -1 1 0
4576 1 5 -0.910846 0.07927000000000463 8.657841 30.637182104104106 0 0 0
3434 1 2 0.417 6.244962841700933 8.842966794637595 28.19767625747045 -6 -1 1
1336 1 2 0.417 10.982908585408557 1.7494266391590727 21.681344506961967 -2 7 1
1041 1 1 -0.834 0.24275889803159173 5.015395587458249 31.9244401876895 -1 -3 1
4615 1 5 -0.911176 6.187530000000007 12.137221000000002 33.10745210410408 0 0 0
3065 1 2 0.417 9.368584556706468 7.370103672205658 22.411681931707957 2 2 0
2204 1 2 0.417 10.516432736826403 5.808140432374502 26.337371523332113 -6 4 1
93 1 1 -0.834 7.820957617367262 11.823802034337884 26.05678821285918 -5 7 0
176 1 1 -0.834 10.473477887922407 7.412794691068938 28.86225529217781 -9 14 2
2127 1 2 0.417 2.0516490879126876 7.579760444566437 35.7242143449555 7 2 1
2268 1 2 0.417 11.584331335895115 11.475404575845106 31.426979491085014 -2 9 0
4528 1 5 -0.964583 6.862610000000012 4.246220000000003 20.203361104104083 0 0 0
3324 1 2 0.417 6.1447266947469 6.003435560191244 29.529757221101185 -1 2 0
4510 1 5 -0.964477 1.8617400000000066 11.462081000000003 32.4196421041041 0 0 0
1589 1 2 0.417 3.5897616879143928 12.001277333581696 20.37167622691939 5 0 2
4722 1 5 -0.889818 10.428731000000013 4.327830000000003 32.33833210410406 0 0 0