ITEM: TIMESTEP
0
ITEM: NUMBER OF ATOMS
4768
ITEM: BOX BOUNDS xy xz yz pp pp pp
0.0000000000000000e+00 2.4433001000000001e+01 0.0000000000000000e+00
0.0000000000000000e+00 2.4433001000000001e+01 0.0000000000000000e+00
0.0000000000000000e+00 8.7675772958794497e+01 0.0000000000000000e+00
ITEM: ATOMS id mol type q x y z
1 1 1 -0.834 6.53397 11.5025 74.615
2 1 1 -0.834 20.4184 17.7632 73.3066
3 1 1 -0.834 2.47974 7.21127 72.4458
4 1 1 -0.834 6.89868 19.9512 82.9778
5 1 1 -0.834 5.84096 5.76883 70.6927
6 1 1 -0.834 10.0119 16.8976 60.2597
7 1 1 -0.834 14.5976 19.8333 74.0633
8 1 1 -0.834 17.4865 24.2759 54.0216
9 1 1 -0.834 20.8399 12.5516 77.4051
10 1 1 -0.834 18.5345 12.7293 38.8555
11 1 1 -0.834 11.2451 14.8034 67.009
12 1 1 -0.834 9.18479 22.2645 14.5845
13 1 1 -0.834 15.4597 16.2387 52.617
14 1 1 -0.834 21.2872 9.38054 15.8668
15 1 1 -0.834 7.66109 4.1931 58.8476
16 1 1 -0.834 1.17514 10.492 14.8967
17 1 1 -0.834 0.0970966 3.34844 68.5886
18 1 1 -0.834 16.8556 3.85268 83.8666
19 1 1 -0.834 21.6016 23.7403 5.61673
20 1 1 -0.834 11.87 0.772403 40.6836
21 1 1 -0.834 19.5178 20.9136 24.9601
22 1 1 -0.834 12.1631 8.45275 46.0153
23 1 1 -0.834 15.2941 7.27535 73.4826
24 1 1 -0.834 9.64145 15.6633 42.0981
25 1 1 -0.834 24.1939 15.7938 44.7339
26 1 1 -0.834 20.1082 12.5621 53.7589
27 1 1 -0.834 12.0266 20.1975 72.2798
28 1 1 -0.834 21.6357 15.3381 58.6236
29 1 1 -0.834 9.72993 7.48802 47.6812
30 1 1 -0.834 24.0878 12.6257 46.3368
31 1 1 -0.834 2.93679 1.53171 60.792
32 1 1 -0.834 12.0496 19.5747 39.701
33 1 1 -0.834 11.8994 13.9685 6.23694
34 1 1 -0.834 8.73169 9.0381 3.31025
35 1 1 -0.834 6.41618 19.3992 62.5632
36 1 1 -0.834 22.9836 16.0783 79.8379
37 1 1 -0.834 6.65892 2.18659 49.2119
38 1 1 -0.834 12.96 6.50127 84.6014
39 1 1 -0.834 1.59447 12.5098 66.2643
40 1 1 -0.834 9.19191 21.373 19.6033
41 1 1 -0.834 5.87183 7.81342 55.9151
42 1 1 -0.834 21.478 1.34286 66.3081
43 1 1 -0.834 11.864 13.7126 72.6352
44 1 1 -0.834 6.35794 14.4324 70.605
45 1 1 -0.834 23.4421 1.74938 46.9969
46 1 1 -0.834 1.39603 15.7613 24.5195
47 1 1 -0.834 14.8712 2.83837 56.2701
48 1 1 -0.834 4.57844 18.8797 42.466
49 1 1 -0.834 21.5923 2.45243 55.6786
50 1 1 -0.834 16.6863 19.9388 6.73596
51 1 1 -0.834 15.7965 17.0617 12.8151
52 1 1 -0.834 1.01436 19.6476 43.6874
53 1 1 -0.834 4.99412 5.9453 48.449
54 1 1 -0.834 20.2644 4.88665 38.8341
55 1 1 -0.834 11.3714 1.72621 22.2792
56 1 1 -0.834 7.89246 0.361513 35.6154
57 1 1 -0.834 24.0253 14.6014 68.5422
58 1 1 -0.834 7.47525 11.2875 86.243
59 1 1 -0.834 6.00983 15.37 64.5136
60 1 1 -0.834 17.8256 5.4516 73.7695
61 1 1 -0.834 14.0939 6.40442 71.2646
62 1 1 -0.834 16.5046 1.82504 79.9703
63 1 1 -0.834 18.9196 10.7918 40.7792
64 1 1 -0.834 2.16285 19.4878 52.6655
65 1 1 -0.834 20.9052 5.92811 78.364
66 1 1 -0.834 0.144157 18.3248 66.2356
67 1 1 -0.834 2.47771 10.0443 48.0812
68 1 1 -0.834 0.398253 6.67822 34.7815
69 1 1 -0.834 17.0383 13.2768 54.7155
70 1 1 -0.834 0.993616 4.84119 12.5111
71 1 1 -0.834 23.6761 9.7928 71.6617
72 1 1 -0.834 2.47943 4.598 76.9236
73 1 1 -0.834 7.8119 1.45038 64.3678
74 1 1 -0.834 20.9742 5.77357 73.8687
75 1 1 -0.834 24.3045 8.67854 80.8534
76 1 1 -0.834 20.1883 8.61468 72.8771
77 1 1 -0.834 9.79329 2.36679 66.3658
78 1 1 -0.834 22.329 9.38788 35.3412
79 1 1 -0.834 9.50318 5.9525 67.9858
80 1 1 -0.834 11.8772 1.23 17.8552
81 1 1 -0.834 10.8954 16.2336 52.2171
82 1 1 -0.834 2.65047 5.88735 68.795
83 1 1 -0.834 18.506 14.4719 7.49347
84 1 1 -0.834 23.6864 21.5616 53.1274
85 1 1 -0.834 11.9393 14.793 69.757
86 1 1 -0.834 17.8183 20.4081 65.6401
87 1 1 -0.834 5.85371 7.91063 79.4587
88 1 1 -0.834 10.7707 23.6266 52.7647
89 1 1 -0.834 0.687692 0.883261 77.5892
90 1 1 -0.834 4.17873 5.77623 78.464
91 1 1 -0.834 4.96361 6.78055 53.4761
92 1 1 -0.834 15.3736 20.3347 49.9316
93 1 1 -0.834 3.00063 2.93047 14.3202
94 1 1 -0.834 7.67992 5.28669 47.3174
95 1 1 -0.834 17.0968 18.3118 52.5124
96 1 1 -0.834 6.75886 4.3638 8.89291
97 1 1 -0.834 5.60303 6.5084 75.0706
98 1 1 -0.834 21.2902 19.2913 57.0362
99 1 1 -0.834 21.0714 12.1123 17.5962
100 1 1 -0.834 12.8511 4.82148 58.4847
101 1 1 -0.834 1.13951 15.9849 55.2076
102 1 1 -0.834 18.9662 10.907 76.4846
103 1 1 -0.834 17.9139 17.6691 67.4128
104 1 1 -0.834 18.3173 0.0950601 44.985
105 1 1 -0.834 19.374 12.8922 79.4989
106 1 1 -0.834 4.04349 14.3756 68.7999
107 1 1 -0.834 14.9006 18.722 60.3349
108 1 1 -0.834 9.36233 10.1748 53.9564
109 1 1 -0.834 0.0976521 2.16046 52.7726
110 1 1 -0.834 17.5068 12.4625 44.5807
111 1 1 -0.834 24.2637 8.90887 74.3991
112 1 1 -0.834 16.7768 5.57228 44.9773
113 1 1 -0.834 20.3867 15.0064 60.9531
114 1 1 -0.834 21.4548 4.60492 66.8166
115 1 1 -0.834 15.6803 10.7489 49.3979
116 1 1 -0.834 11.0064 24.0346 83.1638
117 1 1 -0.834 19.1244 21.5364 51.161
118 1 1 -0.834 11.3619 12.6518 8.74377
119 1 1 -0.834 7.86292 7.53848 30.7661
120 1 1 -0.834 9.0992 13.173 49.0406
121 1 1 -0.834 14.8193 20.997 52.4551
122 1 1 -0.834 3.7605 22.9011 73.4211
123 1 1 -0.834 14.9908 17.8073 81.1637
124 1 1 -0.834 6.68702 16.0999 62.0145
125 1 1 -0.834 24.321 15.1259 72.685
126 1 1 -0.834 16.2273 11.2728 72.6531
127 1 1 -0.834 23.1259 10.4755 47.8131
128 1 1 -0.834 11.5927 1.97937 56.63
129 1 1 -0.834 18.6618 5.70055 48.7802
130 1 1 -0.834 21.5108 23.9329 0.264256
131 1 1 -0.834 24.3015 0.676361 32.3561
132 1 1 -0.834 23.7324 22.4106 79.1706
133 1 1 -0.834 6.97315 0.57237 80.0907
134 1 1 -0.834 11.9554 8.13742 61.3173
135 1 1 -0.834 8.67255 20.2881 10.7906
136 1 1 -0.834 16.4096 9.7396 67.4364
137 1 1 -0.834 6.03256 0.494827 33.5124
138 1 1 -0.834 11.2232 14.2818 47.07
139 1 1 -0.834 19.0735 4.7645 65.7236
140 1 1 -0.834 21.4193 6.2245 52.3319
141 1 1 -0.834 10.1726 0.00857369 55.5091
142 1 1 -0.834 5.66543 9.2942 73.3089
143 1 1 -0.834 12.6256 22.3887 60.7691
144 1 1 -0.834 10.7571 15.058 62.2647
145 1 1 -0.834 3.35297 3.68114 28.9389
146 1 1 -0.834 2.713 11.4069 75.2774
147 1 1 -0.834 19.2883 17.1589 5.09203
148 1 1 -0.834 1.95866 12.9494 72.2845
149 1 1 -0.834 5.70857 3.1894 71.8224
150 1 1 -0.834 21.8411 3.48575 41.993
151 1 1 -0.834 12.2728 4.1823 80.2222
152 1 1 -0.834 8.36608 9.91174 51.4375
153 1 1 -0.834 16.6951 9.40144 40.169
154 1 1 -0.834 23.1613 12.2001 15.4678
155 1 1 -0.834 9.96923 22.0997 72.8181
156 1 1 -0.834 3.59388 19.8831 22.1055
157 1 1 -0.834 14.5844 11.717 54.4564
158 1 1 -0.834 18.8312 4.0738 58.2331
159 1 1 -0.834 12.2758 17.837 44.4971
160 1 1 -0.834 14.5644 4.67169 81.6899
161 1 1 -0.834 20.3299 23.7883 50.2723
162 1 1 -0.834 6.1665 16.9121 50.5888
163 1 1 -0.834 8.17904 7.34266 54.0998
164 1 1 -0.834 4.97952 2.32118 36.9767
165 1 1 -0.834 8.37239 12.651 72.731
166 1 1 -0.834 23.0826 23.3593 56.9222
167 1 1 -0.834 21.1169 9.44395 56.2137
168 1 1 -0.834 13.2814 17.7744 12.6586
169 1 1 -0.834 0.831585 21.4092 67.2665
170 1 1 -0.834 20.9969 18.2079 25.1742
171 1 1 -0.834 5.56604 7.1886 32.2652
172 1 1 -0.834 5.08449 2.06506 62.4381
173 1 1 -0.834 21.66 12.4392 49.3727
174 1 1 -0.834 0.600904 11.2246 21.1153
175 1 1 -0.834 10.0382 8.00179 55.9798
176 1 1 -0.834 11.7565 7.65302 69.4529
177 1 1 -0.834 3.41745 23.7329 45.3162
178 1 1 -0.834 22.4486 4.71555 63.8316
179 1 1 -0.834 20.3727 11.9747 12.8328
180 1 1 -0.834 15.3201 6.64767 51.0017
181 1 1 -0.834 8.00267 2.64426 77.0841
182 1 1 -0.834 3.43186 10.3063 79.1683
183 1 1 -0.834 11.8432 21.0774 42.7928
184 1 1 -0.834 14.3145 12.9278 36.2952
185 1 1 -0.834 12.8083 4.37189 50.1579
186 1 1 -0.834 13.4732 9.356 48.2367
187 1 1 -0.834 17.0454 12.7866 76.6743
188 1 1 -0.834 3.56429 15.7638 26.2882
189 1 1 -0.834 17.837 5.82862 41.1519
190 1 1 -0.834 14.9932 2.72784 48.8534
191 1 1 -0.834 13.8035 23.2875 68.0294
192 1 1 -0.834 7.65706 13.7116 66.2284
193 1 1 -0.834 6.57306 10.6254 56.0847
194 1 1 -0.834 21.3055 21.2913 22.7644
195 1 1 -0.834 19.2427 12.7613 15.4772
196 1 1 -0.834 5.65079 8.49361 48.3317
197 1 1 -0.834 13.3833 18.9506 64.8618
198 1 1 -0.834 1.40394 18.4599 23.2753
199 1 1 -0.834 23.0215 24.0071 49.0324
200 1 1 -0.834 17.8447 4.43888 60.7481
201 1 1 -0.834 10.3868 4.94011 51.7157
202 1 1 -0.834 8.74292 16.3108 56.2098
203 1 1 -0.834 11.7191 2.12487 76.4836
204 1 1 -0.834 14.041 14.7686 12.8129
205 1 1 -0.834 1.41453 24.2338 80.5077
206 1 1 -0.834 16.1394 22.1293 70.2284
207 1 1 -0.834 12.2556 19.3767 81.1057
208 1 1 -0.834 0.467689 10.2698 57.4548
209 1 1 -0.834 19.7369 19.6051 45.9896
210 1 1 -0.834 20.7717 5.6828 57.0091
211 1 1 -0.834 13.2146 19.7334 46.9806
212 1 1 -0.834 2.80732 7.63597 66.1136
213 1 1 -0.834 21.7735 16.4572 77.3674
214 1 1 -0.834 2.48655 14.0894 46.0496
215 1 1 -0.834 18.258 14.8544 72.9553
216 1 1 -0.834 0.216531 3.62193 81.1942
217 1 1 -0.834 12.668 7.74621 56.5472
218 1 1 -0.834 0.531453 5.75157 64.127
219 1 1 -0.834 17.1486 14.6918 50.5952
220 1 1 -0.834 6.96767 0.839542 72.941
221 1 1 -0.834 17.086 16.5656 59.6541
222 1 1 -0.834 12.6999 6.05689 75.1884
223 1 1 -0.834 17.8199 3.75194 43.1069
224 1 1 -0.834 5.30416 15.0651 47.1201
225 1 1 -0.834 6.50059 13.2893 61.7168
226 1 1 -0.834 20.7171 19.813 59.8319
227 1 1 -0.834 9.98553 10.843 86.9475
228 1 1 -0.834 0.815226 3.1669 48.5955
229 1 1 -0.834 9.92891 3.3908 46.1351
230 1 1 -0.834 10.0919 16.1795 77.7483
231 1 1 -0.834 19.454 13.1063 34.9511
232 1 1 -0.834 15.7401 12.8462 81.562
233 1 1 -0.834 11.2694 15.245 32.8096
234 1 1 -0.834 20.3256 23.9346 42.409
235 1 1 -0.834 4.85888 7.35304 58.4532
236 1 1 -0.834 18.9807 24.3766 61.11
237 1 1 -0.834 16.8241 12.0189 36.6714
238 1 1 -0.834 8.12811 17.2008 14.6333
239 1 1 -0.834 7.41932 23.5147 11.8139
240 1 1 -0.834 23.1374 11.0237 12.7082
241 1 1 -0.834 10.3064 2.11482 63.2834
242 1 1 -0.834 0.7603 17.958 48.1896
243 1 1 -0.834 4.11695 17.0725 74.724
244 1 1 -0.834 18.8565 6.39914 13.2245
245 1 1 -0.834 18.5973 8.23792 42.6055
246 1 1 -0.834 7.03482 6.45156 0.844795
247 1 1 -0.834 12.2988 3.47624 54.0986
248 1 1 -0.834 3.90355 8.29805 46.1069
249 1 1 -0.834 4.74143 10.7424 43.6315
250 1 1 -0.834 9.92314 4.87731 72.1832
251 1 1 -0.834 15.3642 14.7534 29.6431
252 1 1 -0.834 12.7741 2.38974 86.9651
253 1 1 -0.834 2.2755 5.72544 51.016
254 1 1 -0.834 17.4863 1.68199 56.1836
255 1 1 -0.834 7.32044 9.66392 65.733
256 1 1 -0.834 0.381371 23.9519 74.5478
257 1 1 -0.834 2.19709 12.1802 59.0641
258 1 1 -0.834 8.8452 3.58414 49.658
259 1 1 -0.834 15.2692 17.074 65.0116
260 1 1 -0.834 7.34901 10.4265 60.4763
261 1 1 -0.834 12.362 11.0197 72.0138
262 1 1 -0.834 15.5385 18.6848 8.7234
263 1 1 -0.834 16.4459 1.39794 42.5539
264 1 1 -0.834 6.77667 18.2415 16.8749
265 1 1 -0.834 13.8945 22.7658 44.5068
266 1 1 -0.834 10.485 6.32419 79.098
267 1 1 -0.834 16.1415 9.07615 77.2182
268 1 1 -0.834 17.9153 19.551 31.9239
269 1 1 -0.834 9.33084 20.2362 36.1733
270 1 1 -0.834 22.7972 19.0455 23.1902
271 1 1 -0.834 7.81627 6.42959 63.829
272 1 1 -0.834 8.33996 13.9407 78.9801
273 1 1 -0.834 18.3689 17.7896 34.1685
274 1 1 -0.834 15.3787 22.8291 20.6671
275 1 1 -0.834 18.7859 16.8756 71.2752
276 1 1 -0.834 5.64474 9.65345 77.5442
277 1 1 -0.834 2.89304 10.5302 84.184
278 1 1 -0.834 9.46214 8.10315 74.05
279 1 1 -0.834 16.8211 8.30461 70.8358
280 1 1 -0.834 1.40554 6.74103 61.3124
281 1 1 -0.834 20.9895 9.11662 39.8908
282 1 1 -0.834 10.5379 23.9994 12.9013
283 1 1 -0.834 18.3155 10.3947 46.0512
284 1 1 -0.834 14.9699 14.7946 77.3483
285 1 1 -0.834 15.4948 21.0053 43.1713
286 1 1 -0.834 2.71142 17.1446 57.5215
287 1 1 -0.834 9.2204 18.9058 18.5734
288 1 1 -0.834 23.5588 20.9748 61.3076
289 1 1 -0.834 15.479 13.1594 52.2252
290 1 1 -0.834 9.33332 21.5715 75.476
291 1 1 -0.834 4.86114 23.445 49.4538
292 1 1 -0.834 15.28 3.59518 41.2713
293 1 1 -0.834 2.33649 1.7801 46.5786
294 1 1 -0.834 23.4731 16.6144 56.6709
295 1 1 -0.834 12.6552 14.9352 30.0421
296 1 1 -0.834 12.5956 2.02219 65.3395
297 1 1 -0.834 7.71151 13.3511 55.7563
298 1 1 -0.834 4.98122 4.07768 12.2649
299 1 1 -0.834 9.65433 8.02018 7.63215
300 1 1 -0.834 9.67489 16.9125 66.5522
301 1 1 -0.834 21.3387 14.5948 47.82
302 1 1 -0.834 19.4777 12.5412 62.4634
303 1 1 -0.834 16.7693 21.7054 27.1388
304 1 1 -0.834 24.1066 5.56487 66.9819
305 1 1 -0.834 4.30733 3.50408 31.5465
306 1 1 -0.834 9.16377 21.3228 83.1975
307 1 1 -0.834 23.0737 14.7818 21.4673
308 1 1 -0.834 22.902 15.3491 85.4311
309 1 1 -0.834 8.18533 19.0008 43.5438
310 1 1 -0.834 16.9818 14.5058 67.7778
311 1 1 -0.834 9.5792 1.45737 39.0779
312 1 1 -0.834 14.7663 0.920074 81.7914
313 1 1 -0.834 19.8974 22.1099 30.2603
314 1 1 -0.834 11.3733 5.20625 55.9732
315 1 1 -0.834 15.5075 3.43398 22.2383
316 1 1 -0.834 12.2625 4.27679 63.7609
317 1 1 -0.834 1.36005 22.4095 71.0153
318 1 1 -0.834 0.74004 21.3762 4.42055
319 1 1 -0.834 16.753 9.87439 51.8636
320 1 1 -0.834 2.50487 15.5176 70.9226
321 1 1 -0.834 1.13294 8.00021 16.4139
322 1 1 -0.834 3.3509 3.41761 79.9584
323 1 1 -0.834 13.1556 20.688 12.7024
324 1 1 -0.834 15.6142 22.5118 46.8572
325 1 1 -0.834 9.59439 6.82186 76.4096
326 1 1 -0.834 15.0572 14.8539 59.7833
327 1 1 -0.834 20.4418 8.28052 69.8118
328 1 1 -0.834 20.7907 6.40739 16.5837
329 1 1 -0.834 7.25714 5.82162 73.1534
330 1 1 -0.834 13.7347 12.7366 50.1011
331 1 1 -0.834 19.7587 12.9043 68.7243
332 1 1 -0.834 2.90465 17.0487 45.2614
333 1 1 -0.834 14.8951 13.0933 57.1518
334 1 1 -0.834 10.1084 7.32898 28.3929
335 1 1 -0.834 7.19386 21.7213 50.5071
336 1 1 -0.834 22.6273 12.6625 65.9109
337 1 1 -0.834 22.5604 2.00349 50.1112
338 1 1 -0.834 1.63645 12.4725 43.899
339 1 1 -0.834 19.612 22.0519 66.7147
340 1 1 -0.834 17.7101 15.1995 75.5614
341 1 1 -0.834 24.3047 19.9399 69.3745
342 1 1 -0.834 16.1393 12.8585 12.5281
343 1 1 -0.834 9.66014 11.0488 42.9429
344 1 1 -0.834 9.83538 3.22008 79.2284
345 1 1 -0.834 3.35689 14.997 53.5354
346 1 1 -0.834 23.3873 4.50558 38.4523
347 1 1 -0.834 10.65 16.8484 11.9622
348 1 1 -0.834 7.8324 1.89173 54.8018
349 1 1 -0.834 17.0135 15.3714 5.42058
350 1 1 -0.834 17.2092 6.79239 83.9839
351 1 1 -0.834 12.4252 18.0805 74.5189
352 1 1 -0.834 20.4944 11.1317 44.5457
353 1 1 -0.834 23.2111 21.3848 48.3558
354 1 1 -0.834 6.2791 21.5308 55.175
355 1 1 -0.834 22.4128 16.2386 74.5049
356 1 1 -0.834 4.73765 22.7113 69.0029
357 1 1 -0.834 0.668251 18.7436 26.3584
358 1 1 -0.834 10.3928 4.30293 43.6237
359 1 1 -0.834 24.0453 10.7102 83.0309
360 1 1 -0.834 12.8975 15.8409 81.6282
361 1 1 -0.834 3.46003 11.398 62.9796
362 1 1 -0.834 9.59939 18.1931 50.8914
363 1 1 -0.834 11.7914 21.5659 18.6831
364 1 1 -0.834 8.46275 5.146 29.4273
365 1 1 -0.834 20.692 1.58407 27.6417
366 1 1 -0.834 5.98087 16.5762 42.0277
367 1 1 -0.834 22.8409 19.2266 79.2558
368 1 1 -0.834 7.46557 19.9095 78.9322
369 1 1 -0.834 22.6743 13.5291 44.2289
370 1 1 -0.834 7.33051 21.6836 72.3675
371 1 1 -0.834 5.80138 4.13012 51.1046
372 1 1 -0.834 1.28448 8.04007 36.8287
373 1 1 -0.834 20.0017 16.8624 29.9835
374 1 1 -0.834 14.9032 0.222597 63.3176
375 1 1 -0.834 2.88972 4.38673 70.9075
376 1 1 -0.834 20.5888 24.2421 56.3765
377 1 1 -0.834 23.0462 11.0301 79.851
378 1 1 -0.834 1.8437 4.5435 59.6223
379 1 1 -0.834 10.9078 15.562 49.4781
380 1 1 -0.834 5.03989 7.98459 43.7542
381 1 1 -0.834 7.6461 9.41379 27.5783
382 1 1 -0.834 19.0203 7.44863 45.3067
383 1 1 -0.834 11.4314 22.3583 69.3768
384 1 1 -0.834 16.7534 8.18794 79.8531
385 1 1 -0.834 15.2002 2.62744 25.7962
386 1 1 -0.834 2.74072 5.74748 81.2767
387 1 1 -0.834 22.8073 2.3037 9.41345
388 1 1 -0.834 1.45345 5.52247 74.4177
389 1 1 -0.834 16.362 12.0095 69.212
390 1 1 -0.834 18.1715 10.5674 79.3011
391 1 1 -0.834 14.4763 6.91979 64.6363
392 1 1 -0.834 7.72587 8.21544 86.8291
393 1 1 -0.834 17.8695 5.22184 87.2662
394 1 1 -0.834 3.86136 15.685 50.8366
395 1 1 -0.834 15.7549 5.72788 17.4954
396 1 1 -0.834 9.94617 12.2763 66.6265
397 1 1 -0.834 2.72698 22.9448 33.0052
398 1 1 -0.834 20.8463 21.0876 42.9243
399 1 1 -0.834 2.81068 7.85153 33.536
400 1 1 -0.834 20.8173 16.8224 67.2066
401 1 1 -0.834 15.6591 19.783 33.5016
402 1 1 -0.834 3.72595 4.44388 73.6952
403 1 1 -0.834 11.5067 9.54783 29.7502
404 1 1 -0.834 7.54473 21.9731 17.3758
405 1 1 -0.834 10.4832 23.4483 17.1815
406 1 1 -0.834 13.2368 2.21009 45.1909
407 1 1 -0.834 22.9786 24.2237 52.2974
408 1 1 -0.834 0.732443 6.53841 46.1295
409 1 1 -0.834 15.1456 2.47188 72.7173
410 1 1 -0.834 19.2063 4.68969 85.0133
411 1 1 -0.834 23.0111 19.2331 3.70484
412 1 1 -0.834 4.19054 4.42528 61.4702
413 1 1 -0.834 22.27 11.5647 57.7979
414 1 1 -0.834 10.4325 2.83637 85.3161
415 1 1 -0.834 21.3121 16.3911 27.6443
416 1 1 -0.834 19.207 16.1449 63.8935
417 1 1 -0.834 21.9956 8.55739 83.3527
418 1 1 -0.834 10.4331 6.03285 23.519
419 1 1 -0.834 4.00366 17.7025 62.6988
420 1 1 -0.834 12.1621 4.21423 24.8661
421 1 1 -0.834 5.61218 13.3521 85.0001
422 1 1 -0.834 17.7195 6.40991 53.0033
423 1 1 -0.834 10.6558 17.1371 80.4214
424 1 1 -0.834 14.4208 4.18911 52.2728
425 1 1 -0.834 23.4758 16.7656 25.6526
426 1 1 -0.834 16.1364 8.48684 45.8994
427 1 1 -0.834 4.36363 20.5083 58.0903
428 1 1 -0.834 19.4946 12.5085 73.3377
429 1 1 -0.834 14.3358 17.5843 32.9682
430 1 1 -0.834 17.6891 23.7311 79.5925
431 1 1 -0.834 16.9738 0.686344 48.7335
432 1 1 -0.834 4.42765 11.2829 49.3621
433 1 1 -0.834 5.52547 23.6057 71.4474
434 1 1 -0.834 23.3751 0.545726 2.30761
435 1 1 -0.834 10.3268 15.2518 9.1299
436 1 1 -0.834 11.2366 19.5325 68.551
437 1 1 -0.834 21.158 19.7798 87.3815
438 1 1 -0.834 24.0298 1.00874 7.22015
439 1 1 -0.834 22.6089 12.2735 37.5753
440 1 1 -0.834 23.1463 12.9412 19.3027
441 1 1 -0.834 3.53441 22.9876 61.3813
442 1 1 -0.834 10.6577 13.1225 31.2007
443 1 1 -0.834 22.6214 21.22 1.59551
444 1 1 -0.834 16.4607 2.79541 63.1257
445 1 1 -0.834 20.319 20.3428 27.7945
446 1 1 -0.834 4.97623 10.7963 22.967
447 1 1 -0.834 15.3765 0.884676 23.2521
448 1 1 -0.834 10.9549 13.0403 28.2911
449 1 1 -0.834 14.2185 7.96176 68.4004
450 1 1 -0.834 23.7805 23.4778 68.6922
451 1 1 -0.834 16.1859 22.8313 83.5838
452 1 1 -0.834 16.8024 17.8841 73.2254
453 1 1 -0.834 4.9189 7.96482 6.15269
454 1 1 -0.834 1.55632 17.2616 51.0157
455 1 1 -0.834 2.28017 7.92993 58.4915
456 1 1 -0.834 5.71399 22.1471 15.1545
457 1 1 -0.834 17.4375 2.61385 0.0632165
458 1 1 -0.834 14.8832 10.1813 70.6469
459 1 1 -0.834 7.75221 14.3741 75.534
460 1 1 -0.834 22.3196 7.07953 55.0983
461 1 1 -0.834 2.80017 15.0617 16.9861
462 1 1 -0.834 17.9215 9.66091 74.0729
463 1 1 -0.834 21.6588 3.63509 45.5418
464 1 1 -0.834 6.29352 12.3381 58.1973
465 1 1 -0.834 9.20291 0.363212 74.5074
466 1 1 -0.834 12.8245 9.98248 2.40032
467 1 1 -0.834 7.42483 18.9422 67.133
468 1 1 -0.834 0.935413 1.32624 55.7465
469 1 1 -0.834 6.7392 9.87092 25.0641
470 1 1 -0.834 1.95979 1.49115 8.68626
471 1 1 -0.834 10.7281 23.521 42.8472
472 1 1 -0.834 20.5625 5.90955 41.4227
473 1 1 -0.834 21.4295 5.65557 69.4128
474 1 1 -0.834 9.09235 21.9549 63.5174
475 1 1 -0.834 15.4612 15.8659 8.08197
476 1 1 -0.834 5.49491 9.63362 3.66684
477 1 1 -0.834 4.26765 0.114531 81.2592
478 1 1 -0.834 15.3666 7.31791 48.2997
479 1 1 -0.834 2.13194 2.55638 64.2389
480 1 1 -0.834 20.7982 15.4802 69.7491
481 1 1 -0.834 9.2033 14.0176 53.1854
482 1 1 -0.834 22.8588 1.16458 79.4374
483 1 1 -0.834 6.19625 19.2233 39.8318
484 1 1 -0.834 18.6363 12.1779 9.39997
485 1 1 -0.834 12.4219 4.03301 71.621
486 1 1 -0.834 17.9836 14.6977 30.6446
487 1 1 -0.834 22.9423 0.368926 29.1975
488 1 1 -0.834 14.8292 7.19362 82.7532
489 1 1 -0.834 18.9037 14.9069 53.6601
490 1 1 -0.834 4.7222 16.8417 17.8228
491 1 1 -0.834 13.4843 23.245 79.0061
492 1 1 -0.834 11.129 20.3281 14.6251
493 1 1 -0.834 17.8004 4.95385 24.3898
494 1 1 -0.834 17.1909 7.35024 75.4975
495 1 1 -0.834 7.18308 15.1342 82.76
496 1 1 -0.834 16.3774 10.6405 62.4041
497 1 1 -0.834 24.3993 6.63136 57.4717
498 1 1 -0.834 12.1287 21.4867 53.7162
499 1 1 -0.834 13.0938 12.8669 76.2797
500 1 1 -0.834 10.4773 10.4796 68.6827
501 1 1 -0.834 1.54223 5.6567 54.9238
502 1 1 -0.834 6.04005 4.60558 76.8578
503 1 1 -0.834 11.5602 5.82507 2.47273
504 1 1 -0.834 9.85581 12.1685 5.79402
505 1 1 -0.834 18.9946 10.0353 63.1816
506 1 1 -0.834 0.0846423 8.41935 48.8833
507 1 1 -0.834 14.3499 17.1268 36.9039
508 1 1 -0.834 2.93116 14.9073 0.597592
509 1 1 -0.834 14.2404 6.60653 60.0028
510 1 1 -0.834 8.01251 15.1845 68.5113
511 1 1 -0.834 1.87463 17.6179 0.293055
512 1 1 -0.834 6.61259 12.3926 26.0915
513 1 1 -0.834 21.1016 19.1604 48.5286
514 1 1 -0.834 7.34233 4.98565 43.7989
515 1 1 -0.834 6.55567 21.6953 45.8786
516 1 1 -0.834 8.34362 4.00404 70.0512
517 1 1 -0.834 4.72597 3.6367 7.25508
518 1 1 -0.834 20.5522 19.3865 66.9612
519 1 1 -0.834 5.74638 13.6675 51.0217
520 1 1 -0.834 13.4757 18.2478 51.0013
521 1 1 -0.834 0.950734 12.3104 85.3089
522 1 1 -0.834 23.6864 20.0919 30.4938
523 1 1 -0.834 20.6142 19.2907 54.4048
524 1 1 -0.834 12.793 11.7851 46.8317
525 1 1 -0.834 21.9131 8.93164 78.597
526 1 1 -0.834 6.89925 9.94458 42.2291
527 1 1 -0.834 0.585892 10.3912 64.7774
528 1 1 -0.834 19.5681 8.50181 77.4528
529 1 1 -0.834 16.373 5.84399 56.959
530 1 1 -0.834 17.5187 1.76401 59.3584
531 1 1 -0.834 22.9641 12.661 75.0412
532 1 1 -0.834 0.789044 20.626 0.538839
533 1 1 -0.834 3.73902 14.2633 60.8787
534 1 1 -0.834 17.7503 19.6157 44.1421
535 1 1 -0.834 2.69368 7.79389 9.06744
536 1 1 -0.834 22.4801 13.3112 81.1334
537 1 1 -0.834 6.99378 23.0235 62.139
538 1 1 -0.834 4.24291 13.234 79.5587
539 1 1 -0.834 17.741 9.64027 16.6877
540 1 1 -0.834 22.0894 8.58673 50.513
541 1 1 -0.834 23.6656 2.47379 65.1379
542 1 1 -0.834 22.9875 1.41629 4.77601
543 1 1 -0.834 18.4331 21.0059 75.9877
544 1 1 -0.834 0.247733 14.5054 50.6149
545 1 1 -0.834 19.1825 9.33224 67.5268
546 1 1 -0.834 7.48153 2.298 68.0669
547 1 1 -0.834 2.33169 15.9443 76.4769
548 1 1 -0.834 17.7494 12.6852 59.0896
549 1 1 -0.834 5.26607 4.8796 57.6425
550 1 1 -0.834 14.6669 14.6984 32.8075
551 1 1 -0.834 4.21196 1.20383 78.7107
552 1 1 -0.834 2.7595 1.91779 76.1579
553 1 1 -0.834 6.81438 6.88572 67.8962
554 1 1 -0.834 19.2362 24.3003 65.4305
555 1 1 -0.834 24.2262 4.89188 52.4382
556 1 1 -0.834 15.272 5.26157 79.0043
557 1 1 -0.834 20.5405 14.732 75.7283
558 1 1 -0.834 19.1644 9.74193 53.6562
559 1 1 -0.834 22.9983 7.66306 59.6963
560 1 1 -0.834 20.4558 23.595 53.4377
561 1 1 -0.834 17.4801 5.65123 21.6702
562 1 1 -0.834 8.848 0.238685 50.1473
563 1 1 -0.834 1.50025 21.0726 74.207
564 1 1 -0.834 8.72026 23.998 66.2286
565 1 1 -0.834 11.3923 13.4253 78.3664
566 1 1 -0.834 4.07638 21.0396 50.2285
567 1 1 -0.834 10.1466 13.0733 75.202
568 1 1 -0.834 16.6355 23.7765 65.3442
569 1 1 -0.834 24.1944 9.62277 52.5326
570 1 1 -0.834 23.9536 18.8879 50.4169
571 1 1 -0.834 6.0278 21.1254 43.273
572 1 1 -0.834 23.0737 7.05896 39.7652
573 1 1 -0.834 13.7025 1.6881 58.4075
574 1 1 -0.834 9.73915 8.12553 65.7405
575 1 1 -0.834 6.30723 3.61813 65.4691
576 1 1 -0.834 16.1498 15.7219 35.2577
577 1 1 -0.834 8.80262 23.2679 38.6081
578 1 1 -0.834 13.8158 0.248884 42.4388
579 1 1 -0.834 9.51705 14.9487 71.6941
580 1 1 -0.834 23.4145 17.513 1.50372
581 1 1 -0.834 13.7044 23.8856 70.9596
582 1 1 -0.834 23.8736 9.77918 37.6974
583 1 1 -0.834 11.5684 0.554187 60.8867
584 1 1 -0.834 7.44669 6.37732 27.184
585 1 1 -0.834 21.225 8.37648 64.1208
586 1 1 -0.834 18.6721 11.2734 50.5536
587 1 1 -0.834 19.8347 2.08802 43.8443
588 1 1 -0.834 16.353 6.28897 68.7925
589 1 1 -0.834 1.48615 5.37822 37.7985
590 1 1 -0.834 16.3534 8.69664 60.4674
591 1 1 -0.834 10.3253 9.34916 24.431
592 1 1 -0.834 10.4754 19.0369 61.9527
593 1 1 -0.834 14.0675 18.9079 78.897
594 1 1 -0.834 11.8746 11.676 56.0241
595 1 1 -0.834 10.1369 21.5594 66.5708
596 1 1 -0.834 17.1362 23.2011 0.969037
597 1 1 -0.834 12.8201 17.5997 9.9168
598 1 1 -0.834 4.6103 21.0777 52.8305
599 1 1 -0.834 21.1868 8.13466 75.2783
600 1 1 -0.834 17.8372 21.3998 54.2711
601 1 1 -0.834 0.837751 22.8692 1.83174
602 1 1 -0.834 9.83232 20.8281 80.1276
603 1 1 -0.834 18.9943 16.5046 10.1682
604 1 1 -0.834 10.9733 7.06836 86.3633
605 1 1 -0.834 11.3804 11.5531 50.4268
606 1 1 -0.834 2.83968 3.06612 33.9338
607 1 1 -0.834 0.994787 13.4363 22.7631
608 1 1 -0.834 19.6817 6.95625 82.6984
609 1 1 -0.834 6.47596 17.8455 59.8062
610 1 1 -0.834 21.1704 20.429 77.4684
611 1 1 -0.834 4.8684 12.1068 67.345
612 1 1 -0.834 4.68235 8.12215 27.2415
613 1 1 -0.834 6.96317 4.83505 32.9402
614 1 1 -0.834 4.61053 0.0747072 13.397
615 1 1 -0.834 4.77345 18.5153 85.7985
616 1 1 -0.834 0.38579 20.7662 24.7263
617 1 1 -0.834 10.3683 18.4405 42.1547
618 1 1 -0.834 17.682 10.4108 12.1256
619 1 1 -0.834 13.9108 6.16661 1.02329
620 1 1 -0.834 23.3537 8.88904 62.3513
621 1 1 -0.834 7.80508 1.95489 61.6404
622 1 1 -0.834 8.19292 11.1765 30.8883
623 1 1 -0.834 6.74905 9.55111 70.8674
624 1 1 -0.834 13.1508 24.1891 22.1629
625 1 1 -0.834 4.17837 7.66873 70.0833
626 1 1 -0.834 17.4236 3.81406 78.3876
627 1 1 -0.834 17.7799 23.7374 25.7796
628 1 1 -0.834 8.94588 20.8329 60.5261
629 1 1 -0.834 22.8397 4.96571 35.5685
630 1 1 -0.834 0.194405 14.7131 87.4054
631 1 1 -0.834 7.84405 17.1552 45.7561
632 1 1 -0.834 14.736 10.5479 9.78706
633 1 1 -0.834 11.6775 23.0624 39.007
634 1 1 -0.834 17.7417 21.3752 62.242
635 1 1 -0.834 0.988222 16.8751 62.6844
636 1 1 -0.834 7.04057 11.7216 49.4784
637 1 1 -0.834 11.5282 16.7974 38.2658
638 1 1 -0.834 16.7489 18.278 48.1182
639 1 1 -0.834 15.3062 13.2476 46.7507
640 1 1 -0.834 9.80021 9.23298 32.0813
641 1 1 -0.834 22.4642 6.3395 80.7635
642 1 1 -0.834 12.2992 23.1874 75.4787
643 1 1 -0.834 24.2514 3.88959 31.5679
644 1 1 -0.834 5.72489 14.8858 87.4896
645 1 1 -0.834 14.4751 4.31903 19.3543
646 1 1 -0.834 22.4571 21.7186 70.9887
647 1 1 -0.834 1.92901 10.0677 45.3535
648 1 1 -0.834 0.210061 19.3387 54.5789
649 1 1 -0.834 11.518 14.6154 59.248
650 1 1 -0.834 15.3701 23.887 57.9863
651 1 1 -0.834 7.0732 19.2103 73.662
652 1 1 -0.834 13.3098 10.0178 57.9379
653 1 1 -0.834 14.1338 0.264743 51.7729
654 1 1 -0.834 20.343 5.9138 62.3033
655 1 1 -0.834 8.56431 21.4151 68.6312
656 1 1 -0.834 12.7784 2.00579 83.2246
657 1 1 -0.834 1.46153 20.1395 79.4416
658 1 1 -0.834 11.2003 23.2409 45.5571
659 1 1 -0.834 6.05257 15.2761 73.5985
660 1 1 -0.834 14.2806 15.1755 72.2572
661 1 1 -0.834 14.981 21.5778 62.0243
662 1 1 -0.834 19.6122 9.80461 18.5813
663 1 1 -0.834 17.6738 12.4476 48.1747
664 1 1 -0.834 18.7508 5.36428 76.8405
665 1 1 -0.834 7.51765 5.52435 79.9414
666 1 1 -0.834 2.24127 21.087 62.8122
667 1 1 -0.834 4.0939 18.611 19.7966
668 1 1 -0.834 14.8633 18.2793 45.2795
669 1 1 -0.834 7.32359 19.0135 55.4536
670 1 1 -0.834 15.2893 5.03138 62.1049
671 1 1 -0.834 4.1404 18.2124 67.5852
672 1 1 -0.834 9.98443 4.97413 65.3852
673 1 1 -0.834 22.2384 9.24518 10.7482
674 1 1 -0.834 7.66214 10.8164 5.09112
675 1 1 -0.834 0.916843 0.820341 44.6087
676 1 1 -0.834 12.3364 10.869 43.7477
677 1 1 -0.834 9.08442 17.1473 69.8946
678 1 1 -0.834 18.5147 17.784 55.2206
679 1 1 -0.834 24.1874 13.1267 62.2547
680 1 1 -0.834 23.6611 2.7497 76.2425
681 1 1 -0.834 10.1916 4.9016 26.9406
682 1 1 -0.834 0.351788 8.68982 66.9262
683 1 1 -0.834 23.063 4.50679 11.1704
684 1 1 -0.834 0.795408 13.1274 53.041
685 1 1 -0.834 14.5973 13.2821 8.13737
686 1 1 -0.834 23.1743 1.56197 57.9536
687 1 1 -0.834 16.7076 16.3346 45.4461
688 1 1 -0.834 3.39175 19.1892 83.1388
689 1 1 -0.834 22.4535 1.18527 43.6944
690 1 1 -0.834 2.98087 15.8005 48.2
691 1 1 -0.834 14.9978 17.0325 75.2107
692 1 1 -0.834 0.910762 17.2173 74.1953
693 1 1 -0.834 14.0439 10.9749 74.4673
694 1 1 -0.834 9.32261 8.60273 38.4859
695 1 1 -0.834 14.0104 7.97054 79.6268
696 1 1 -0.834 0.724965 5.89629 79.4859
697 1 1 -0.834 24.1017 10.8264 43.1211
698 1 1 -0.834 11.2823 4.28734 83.2136
699 1 1 -0.834 0.906353 12.3524 69.6588
700 1 1 -0.834 17.3597 23.4994 51.2416
701 1 1 -0.834 19.084 7.46933 38.7776
702 1 1 -0.834 6.56279 16.98 76.4974
703 1 1 -0.834 0.260825 13.9001 16.985
704 1 1 -0.834 11.7407 0.894133 79.1574
705 1 1 -0.834 18.0306 14.6676 81.2169
706 1 1 -0.834 8.92153 23.6944 60.0619
707 1 1 -0.834 12.9529 11.295 31.3781
708 1 1 -0.834 13.5798 17.9334 58.2181
709 1 1 -0.834 14.3157 0.216619 76.8814
710 1 1 -0.834 4.46662 5.46714 5.2741
711 1 1 -0.834 17.9168 24.2459 71.7815
712 1 1 -0.834 3.97073 13.9984 76.8979
713 1 1 -0.834 20.2155 10.1254 81.7246
714 1 1 -0.834 11.0522 4.319 0.0519176
715 1 1 -0.834 17.1698 1.56805 67.0239
716 1 1 -0.834 16.1186 17.5083 57.2566
717 1 1 -0.834 11.8047 13.3959 64.1115
718 1 1 -0.834 6.19176 9.65624 68.2532
719 1 1 -0.834 9.09631 3.58929 56.5591
720 1 1 -0.834 19.8121 17.9037 79.6108
721 1 1 -0.834 12.3789 17.8277 70.2599
722 1 1 -0.834 23.0382 18.2533 28.5477
723 1 1 -0.834 23.2711 7.87189 69.0873
724 1 1 -0.834 5.89655 20.4223 65.2153
725 1 1 -0.834 1.18697 14.1486 83.3263
726 1 1 -0.834 16.0874 10.6492 58.2702
727 1 1 -0.834 15.6087 2.76135 76.261
728 1 1 -0.834 17.29 10.3096 55.8913
729 1 1 -0.834 7.15053 17.7099 80.4546
730 1 1 -0.834 8.3623 7.42662 24.707
731 1 1 -0.834 24.2801 19.4829 63.6846
732 1 1 -0.834 23.0254 18.4901 45.9826
733 1 1 -0.834 8.65881 2.67247 42.1885
734 1 1 -0.834 21.9148 1.91527 74.2069
735 1 1 -0.834 8.08767 17.2785 40.2967
736 1 1 -0.834 11.8171 6.67316 49.1514
737 1 1 -0.834 9.20749 10.395 57.238
738 1 1 -0.834 10.7188 10.7077 64.4684
739 1 1 -0.834 24.2844 6.52007 43.226
740 1 1 -0.834 19.1631 9.28306 14.1548
741 1 1 -0.834 1.56815 9.35156 55.0119
742 1 1 -0.834 10.7789 20.6307 51.5446
743 1 1 -0.834 20.4399 21.4987 7.46017
744 1 1 -0.834 23.0362 23.4005 62.8775
745 1 1 -0.834 18.0738 20.6483 1.00856
746 1 1 -0.834 21.7863 15.5655 64.8381
747 1 1 -0.834 14.02 21.5854 39.765
748 1 1 -0.834 14.1014 5.36018 46.3808
749 1 1 -0.834 2.32745 17.2875 42.6253
750 1 1 -0.834 6.81346 1.88175 12.6245
751 1 1 -0.834 18.9108 13.8876 11.7211
752 1 1 -0.834 14.6023 24.35 18.2428
753 1 1 -0.834 4.00866 19.3973 46.3122
754 1 1 -0.834 9.20585 0.150838 77.8875
755 1 1 -0.834 14.7017 6.65238 20.5634
756 1 1 -0.834 4.77558 19.499 80.337
757 1 1 -0.834 24.4281 13.9932 78.7899
758 1 1 -0.834 14.4169 15.881 49.9806
759 1 1 -0.834 1.31063 20.2343 46.5653
760 1 1 -0.834 23.8521 13.7835 58.0228
761 1 1 -0.834 14.2938 3.82668 84.8171
762 1 1 -0.834 2.57786 22.8484 58.9018
763 1 1 -0.834 7.67914 5.16573 52.6183
764 1 1 -0.834 3.7108 20.0283 71.0234
765 1 1 -0.834 1.60829 23.5595 9.7991
766 1 1 -0.834 20.5707 3.44298 79.1575
767 1 1 -0.834 18.9127 2.20495 64.2118
768 1 1 -0.834 12.1632 9.28834 87.5776