 DBCSR| CPU Multiplication driver                                           XSMM
 DBCSR| Multrec recursion limit                                              512
 DBCSR| Multiplication stack size                                           1000
 DBCSR| Maximum elements for images                                    UNLIMITED
 DBCSR| Multiplicative factor virtual images                                   1
 DBCSR| Use multiplication densification                                       T
 DBCSR| Multiplication size stacks                                             3
 DBCSR| Use memory pool for CPU allocation                                     F
 DBCSR| Number of 3D layers                                               SINGLE
 DBCSR| Use MPI memory allocation                                              F
 DBCSR| Use RMA algorithm                                                      F
 DBCSR| Use Communication thread                                               T
 DBCSR| Communication thread load                                             87
 DBCSR| MPI: My node id                                                        0
 DBCSR| MPI: Number of nodes                                                  24
 DBCSR| OMP: Current number of threads                                         1
 DBCSR| OMP: Max number of threads                                             1
 DBCSR| Split modifier for TAS multiplication algorithm                  1.0E+00


  **** **** ******  **  PROGRAM STARTED AT               2022-09-04 17:48:39.735
 ***** ** ***  *** **   PROGRAM STARTED ON         node1052.palmetto.clemson.edu
 **    ****   ******    PROGRAM STARTED BY                               xiutinc
 ***** **    ** ** **   PROGRAM PROCESS ID                               3730358
  **** **  *******  **  PROGRAM STARTED IN    /scratch1/xiutinc/CP2K-96996.pbs02

 CP2K| version string:                                          CP2K version 9.1
 CP2K| source code revision number:                                  git:d8d7100
 CP2K| cp2kflags: omp libint fftw3 libxc parallel mpi3 scalapack xsmm           
 CP2K| is freely available from                            https://www.cp2k.org/
 CP2K| Program compiled at                          Mon Aug  8 12:17:03 EDT 2022
 CP2K| Program compiled on                         node0352.palmetto.clemson.edu
 CP2K| Program compiled for                           linux-rocky8-ivybridge-gcc
 CP2K| Data directory path    /software/spackages/linux-rocky8-ivybridge/gcc-9.5
 CP2K| Input file name                                             intE03_aq.inp

 GLOBAL| Force Environment number                                              1
 GLOBAL| Basis set file name                                          BASIS_file
 GLOBAL| Potential file name                                     POTENTIALS_file
 GLOBAL| MM Potential file name                                     MM_POTENTIAL
 GLOBAL| Coordinate file name                                    ./intE03_aq.xyz
 GLOBAL| Method name                                                        CP2K
 GLOBAL| Project name                                                  intE03_aq
 GLOBAL| Run type                                                        GEO_OPT
 GLOBAL| FFT library                                                       FFTW3
 GLOBAL| Diagonalization library                                       ScaLAPACK
 GLOBAL| Orthonormality check for eigenvectors                          DISABLED
 GLOBAL| Matrix multiplication library                                 ScaLAPACK
 GLOBAL| All-to-all communication in single precision                          F
 GLOBAL| FFTs using library dependent lengths                                  F
 GLOBAL| Grid backend                                                       AUTO
 GLOBAL| Global print level                                                  LOW
 GLOBAL| MPI I/O enabled                                                       T
 GLOBAL| Total number of message passing processes                            24
 GLOBAL| Number of threads for this process                                    1
 GLOBAL| This output is from process                                           0
 GLOBAL| Stack size for threads created by OpenMP (OMP_STACKSIZE)        default
 GLOBAL| CPU model name                Intel(R) Xeon(R) CPU E5-2680 v3 @ 2.50GHz
 GLOBAL| CPUID                                                              1002
 GLOBAL| Compiled for CPUID                                                 1001

 *** HINT in environment.F:869 :: The compiler target flags (x86_avx) used ***
 *** to build this binary cannot exploit all extensions of this CPU model  ***
 *** (x86_avx2). Consider compiler target flags as part of FCFLAGS and     ***
 *** CFLAGS (ARCH file).                                                   ***


 MEMORY| system memory details [Kb]
 MEMORY|                        rank 0           min           max       average
 MEMORY| MemTotal            131294764     131294764     131294764     131294764
 MEMORY| MemFree             123714340     123714340     123714340     123714340
 MEMORY| Buffers                  3504          3504          3504          3504
 MEMORY| Cached                2403380       2403380       2403380       2403380
 MEMORY| Slab                   587480        587480        587480        587480
 MEMORY| SReclaimable           268220        268220        268220        268220
 MEMORY| MemLikelyFree       126389444     126389444     126389444     126389444


 *******************************************************************************
 *******************************************************************************
 **                                                                           **
 **     #####                         ##              ##                      **
 **    ##   ##            ##          ##              ##                      **
 **   ##     ##                       ##            ######                    **
 **   ##     ##  ##   ##  ##   #####  ##  ##   ####   ##    #####    #####    **
 **   ##     ##  ##   ##  ##  ##      ## ##   ##      ##   ##   ##  ##   ##   **
 **   ##  ## ##  ##   ##  ##  ##      ####     ###    ##   ######   ######    **
 **    ##  ###   ##   ##  ##  ##      ## ##      ##   ##   ##       ##        **
 **     #######   #####   ##   #####  ##  ##  ####    ##    #####   ##        **
 **           ##                                                    ##        **
 **                                                                           **
 **                                                ... make the atoms dance   **
 **                                                                           **
 **            Copyright (C) by CP2K developers group (2000-2021)             **
 **                      J. Chem. Phys. 152, 194103 (2020)                    **
 **                                                                           **
 *******************************************************************************


 TOTAL NUMBERS AND MAXIMUM NUMBERS

  Total number of            - Atomic kinds:                                   5
                             - Atoms:                                        646
                             - Shell sets:                                   646
                             - Shells:                                      3137
                             - Primitive Cartesian functions:               3041
                             - Cartesian basis functions:                   8629
                             - Spherical basis functions:                   8027

  Maximum angular momentum of- Orbital basis functions:                        3
                             - Local part of the GTH pseudopotential:          2
                             - Non-local part of the GTH pseudopotential:      3


 SCF PARAMETERS         Density guess:                                   RESTART
                        --------------------------------------------------------
                        max_scf:                                             500
                        max_scf_history:                                       0
                        max_diis:                                              4
                        --------------------------------------------------------
                        eps_scf:                                        1.00E-06
                        eps_scf_history:                                0.00E+00
                        eps_diis:                                       1.00E-01
                        eps_eigval:                                     1.00E-05
                        --------------------------------------------------------
                        level_shift [a.u.]:                                 0.00
                        --------------------------------------------------------
                        Outer loop SCF in use 
                        No variables optimised in outer loop
                        eps_scf                                         1.00E-06
                        max_scf                                               50
                        No outer loop optimization
                        step_size                                       5.00E-01

 BFGS| Use rational function optimization for step estimation:                NO
 BFGS| Use model Hessian for initial guess:                                  YES
 BFGS| Restart Hessian:                                                       NO
 BFGS| Trust radius:                                                       0.472

 *******************************************************************************
 ***                     STARTING GEOMETRY OPTIMIZATION                      ***
 ***                                   BFGS                                  ***
 *******************************************************************************

 Number of electrons:                                                       3256
 Number of occupied orbitals:                                               1628
 Number of molecular orbitals:                                              1628

 Number of orbital functions:                                               8027
 Number of independent orbital functions:                                   8027

 Extrapolation method: initial_guess

 *** WARNING in qs_initial_guess.F:309 :: User requested to restart the   ***
 *** wavefunction from the file named: intE03_aq-RESTART.wfn. This file   ***
 *** does not exist. Please check the existence of the file or change     ***
 *** properly the value of the keyword WFN_RESTART_FILE_NAME. Calculation ***
 *** continues using ATOMIC GUESS.                                        ***



 SCF WAVEFUNCTION OPTIMIZATION

  ----------------------------------- OT ---------------------------------------
  Minimizer      : CG                  : conjugate gradient
  Preconditioner : FULL_ALL            : diagonalization, state selective
  Precond_solver : DEFAULT
  Line search    : 2PNT                : 2 energies, one gradient
  stepsize       :    0.15000000                  energy_gap     :    0.00100000
  eps_taylor     :   0.10000E-15                  max_taylor     :             4
  ----------------------------------- OT ---------------------------------------

  Step     Update method      Time    Convergence         Total energy    Change
  ------------------------------------------------------------------------------
     1 OT CG       0.15E+00   39.6     0.01618665     -7131.4919465762 -7.13E+03
     2 OT LS       0.68E-01    4.5                    -7076.3924481340
     3 OT CG       0.68E-01   11.2     0.07717795     -7048.0525425108  8.34E+01
     4 OT LS       0.97E-02    4.5                    -5258.5080592839
     5 OT CG       0.97E-02   11.2     0.02749706     -7079.6424089351 -3.16E+01
     6 OT LS       0.11E-01    4.7                    -7123.7971362908
     7 OT CG       0.11E-01   12.8     0.01178020     -7125.3664830196 -4.57E+01
     8 OT LS       0.44E-01    4.5                    -7144.3683176356
     9 OT CG       0.44E-01   11.2     0.00937378     -7191.1040220869 -6.57E+01
    10 OT LS       0.13E+00    4.5                    -7232.7136580615
    11 OT CG       0.13E+00   11.2     0.01005156     -7261.9101549921 -7.08E+01
    12 OT LS       0.30E-01    4.5                    -7084.5697500404
    13 OT CG       0.30E-01   11.2     0.00802042     -7276.0318400236 -1.41E+01
    14 OT LS       0.52E-01    4.6                    -7292.4170994569
    15 OT CG       0.52E-01   11.2     0.00569852     -7297.6951350077 -2.17E+01
    16 OT LS       0.58E-01    4.5                    -7310.6026787999
    17 OT CG       0.58E-01   11.2     0.00553664     -7310.6477151497 -1.30E+01
    18 OT LS       0.39E-01    4.5                    -7316.2192413650
    19 OT CG       0.39E-01   11.2     0.00344233     -7317.8124594271 -7.16E+00
    20 OT LS       0.73E-01    4.5                    -7322.2077577811
    21 OT CG       0.73E-01   11.2     0.00282769     -7323.6099450092 -5.80E+00
    22 OT LS       0.70E-01    4.5                    -7327.4613891835
    23 OT CG       0.70E-01   11.2     0.00264216     -7327.4780547331 -3.87E+00
    24 OT LS       0.62E-01    4.5                    -7330.1422729493
    25 OT CG       0.62E-01   11.2     0.00231717     -7330.1757712294 -2.70E+00
    26 OT LS       0.86E-01    4.5                    -7332.9819192719
    27 OT CG       0.86E-01   11.2     0.00210061     -7333.2148934763 -3.04E+00
    28 OT LS       0.82E-01    4.5                    -7335.5616408407
    29 OT CG       0.82E-01   11.3     0.00217270     -7335.5722248165 -2.36E+00
    30 OT LS       0.74E-01    4.5                    -7337.8005811781
    31 OT CG       0.74E-01   11.2     0.00206648     -7337.8214861106 -2.25E+00
    32 OT LS       0.69E-01    4.5                    -7339.7330675447
    33 OT CG       0.69E-01   11.2     0.00195171     -7339.7494839022 -1.93E+00
    34 OT LS       0.80E-01    4.5                    -7341.6860251559
    35 OT CG       0.80E-01   11.9     0.00188118     -7341.7195150225 -1.97E+00
    36 OT LS       0.73E-01    4.9                    -7343.3805294336
    37 OT CG       0.73E-01   12.3     0.00165138     -7343.3867075981 -1.67E+00
    38 OT LS       0.85E-01    4.5                    -7344.9008888588
    39 OT CG       0.85E-01   11.2     0.00163711     -7344.9237185759 -1.54E+00
    40 OT LS       0.70E-01    4.5                    -7346.0766574376
    41 OT CG       0.70E-01   11.2     0.00150999     -7346.1328221822 -1.21E+00
    42 OT LS       0.84E-01    4.5                    -7347.3484392245
    43 OT CG       0.84E-01   11.2     0.00136185     -7347.3854216118 -1.25E+00
    44 OT LS       0.87E-01    4.5                    -7348.4480489394
    45 OT CG       0.87E-01   11.3     0.00132870     -7348.4489005455 -1.06E+00
    46 OT LS       0.83E-01    4.5                    -7349.4044294557
    47 OT CG       0.83E-01   11.2     0.00132748     -7349.4065600086 -9.58E-01
    48 OT LS       0.76E-01    4.5                    -7350.2618692198
    49 OT CG       0.76E-01   11.2     0.00118791     -7350.2710959699 -8.65E-01
    50 OT LS       0.93E-01    4.5                    -7351.0988896103
    51 OT CG       0.93E-01   11.2     0.00115150     -7351.1285056616 -8.57E-01
    52 OT LS       0.85E-01    4.5                    -7351.8609915226
    53 OT CG       0.85E-01   11.2     0.00112435     -7351.8669115263 -7.38E-01
    54 OT LS       0.83E-01    4.5                    -7352.5513944628
    55 OT CG       0.83E-01   11.2     0.00105619     -7352.5519472189 -6.85E-01
    56 OT LS       0.84E-01    4.5                    -7353.1649286885
    57 OT CG       0.84E-01   11.2     0.00097588     -7353.1650119781 -6.13E-01
    58 OT LS       0.93E-01    4.5                    -7353.7393702376
    59 OT CG       0.93E-01   11.2     0.00094658     -7353.7446478068 -5.80E-01
    60 OT LS       0.86E-01    4.8                    -7354.2391503014
    61 OT CG       0.86E-01   11.2     0.00089963     -7354.2433067093 -4.99E-01
    62 OT LS       0.87E-01    4.5                    -7354.7011100917
    63 OT CG       0.87E-01   11.2     0.00085141     -7354.7011963619 -4.58E-01
    64 OT LS       0.87E-01    4.5                    -7355.1144660860
    65 OT CG       0.87E-01   11.2     0.00080752     -7355.1144734836 -4.13E-01
    66 OT LS       0.89E-01    4.5                    -7355.4950211227
    67 OT CG       0.89E-01   11.2     0.00077073     -7355.4952174604 -3.81E-01
    68 OT LS       0.89E-01    4.5                    -7355.8396576311
    69 OT CG       0.89E-01   11.2     0.00073738     -7355.8396667640 -3.44E-01
    70 OT LS       0.89E-01    4.5                    -7356.1556513518
    71 OT CG       0.89E-01   11.2     0.00070306     -7356.1556507250 -3.16E-01
    72 OT LS       0.88E-01    4.5                    -7356.4401395342
    73 OT CG       0.88E-01   11.2     0.00066944     -7356.4401850754 -2.85E-01
    74 OT LS       0.89E-01    4.5                    -7356.7019531825
    75 OT CG       0.89E-01   11.5     0.00063341     -7356.7020029296 -2.62E-01
    76 OT LS       0.91E-01    4.5                    -7356.9395114464
    77 OT CG       0.91E-01   11.2     0.00060273     -7356.9395648840 -2.38E-01
    78 OT LS       0.90E-01    4.5                    -7357.1528698180
    79 OT CG       0.90E-01   11.2     0.00057627     -7357.1528881855 -2.13E-01
    80 OT LS       0.89E-01    4.5                    -7357.3462134242
    81 OT CG       0.89E-01   11.2     0.00054774     -7357.3462347501 -1.93E-01
    82 OT LS       0.91E-01    5.5                    -7357.5236242192
    83 OT CG       0.91E-01   12.2     0.00052343     -7357.5236638882 -1.77E-01
    84 OT LS       0.92E-01    4.5                    -7357.6876707910
    85 OT CG       0.92E-01   11.2     0.00050121     -7357.6877006112 -1.64E-01
    86 OT LS       0.92E-01    4.5                    -7357.8384348212
    87 OT CG       0.92E-01   11.2     0.00048267     -7357.8384351494 -1.51E-01
    88 OT LS       0.91E-01    4.5                    -7357.9776264500
    89 OT CG       0.91E-01   11.2     0.00046508     -7357.9776311255 -1.39E-01
    90 OT LS       0.92E-01    4.5                    -7358.1073692391
    91 OT CG       0.92E-01   11.3     0.00044749     -7358.1073702068 -1.30E-01
    92 OT LS       0.92E-01    4.5                    -7358.2276038820
    93 OT CG       0.92E-01   11.2     0.00043048     -7358.2276045940 -1.20E-01
    94 OT LS       0.93E-01    4.5                    -7358.3397553833
    95 OT CG       0.93E-01   11.2     0.00041461     -7358.3397619110 -1.12E-01
    96 OT LS       0.92E-01    4.5                    -7358.4430344207
    97 OT CG       0.92E-01   11.2     0.00039980     -7358.4430424464 -1.03E-01
    98 OT LS       0.92E-01    4.5                    -7358.5390064588
    99 OT CG       0.92E-01   11.2     0.00038461     -7358.5390063085 -9.60E-02
   100 OT LS       0.92E-01    4.5                    -7358.6282437914
   101 OT CG       0.92E-01   11.2     0.00037055     -7358.6282472381 -8.92E-02
   102 OT LS       0.93E-01    4.5                    -7358.7116971885
   103 OT CG       0.93E-01   11.2     0.00035763     -7358.7117018763 -8.35E-02
   104 OT LS       0.92E-01    4.5                    -7358.7890518900
   105 OT CG       0.92E-01   11.2     0.00034578     -7358.7890549381 -7.74E-02
   106 OT LS       0.92E-01    4.5                    -7358.8611149335
   107 OT CG       0.92E-01   11.3     0.00033360     -7358.8611159387 -7.21E-02
   108 OT LS       0.93E-01    4.5                    -7358.9284159845
   109 OT CG       0.93E-01   11.2     0.00032189     -7358.9284173442 -6.73E-02
   110 OT LS       0.93E-01    4.7                    -7358.9913183962
   111 OT CG       0.93E-01   12.2     0.00031227     -7358.9913195017 -6.29E-02
   112 OT LS       0.92E-01    4.6                    -7359.0501510292
   113 OT CG       0.92E-01   12.5     0.00030218     -7359.0501541847 -5.88E-02
   114 OT LS       0.93E-01    4.5                    -7359.1055315005
   115 OT CG       0.93E-01   11.2     0.00029305     -7359.1055325441 -5.54E-02
   116 OT LS       0.93E-01    4.5                    -7359.1576354353
   117 OT CG       0.93E-01   11.2     0.00028389     -7359.1576354529 -5.21E-02
   118 OT LS       0.93E-01    4.5                    -7359.2066886672
   119 OT CG       0.93E-01   11.2     0.00027582     -7359.2066893488 -4.91E-02
   120 OT LS       0.93E-01    4.5                    -7359.2531032278
   121 OT CG       0.93E-01   11.3     0.00026850     -7359.2531033043 -4.64E-02
   122 OT LS       0.93E-01    4.5                    -7359.2971052707
   123 OT CG       0.93E-01   11.2     0.00026157     -7359.2971052623 -4.40E-02
   124 OT LS       0.93E-01    4.5                    -7359.3387787664
   125 OT CG       0.93E-01   11.2     0.00025387     -7359.3387788467 -4.17E-02
   126 OT LS       0.94E-01    4.5                    -7359.3782148080
   127 OT CG       0.94E-01   11.2     0.00024806     -7359.3782159182 -3.94E-02
   128 OT LS       0.94E-01    4.5                    -7359.4158818933
   129 OT CG       0.94E-01   11.2     0.00024171     -7359.4158818699 -3.77E-02
   130 OT LS       0.94E-01    4.5                    -7359.4516594532
   131 OT CG       0.94E-01   11.2     0.00023602     -7359.4516594570 -3.58E-02
   132 OT LS       0.94E-01    4.5                    -7359.4856860407
   133 OT CG       0.94E-01   11.2     0.00022904     -7359.4856862366 -3.40E-02
   134 OT LS       0.95E-01    4.5                    -7359.5180575640
   135 OT CG       0.95E-01   11.2     0.00022369     -7359.5180615635 -3.24E-02
   136 OT LS       0.95E-01    4.5                    -7359.5489856297
   137 OT CG       0.95E-01   11.4     0.00021791     -7359.5489856509 -3.09E-02
   138 OT LS       0.95E-01    4.5                    -7359.5783354178
   139 OT CG       0.95E-01   11.2     0.00021326     -7359.5783354254 -2.93E-02
   140 OT LS       0.94E-01    4.5                    -7359.6062602309
   141 OT CG       0.94E-01   11.2     0.00020752     -7359.6062614633 -2.79E-02
   142 OT LS       0.94E-01    4.5                    -7359.6326949703
   143 OT CG       0.94E-01   11.2     0.00020278     -7359.6326949759 -2.64E-02
   144 OT LS       0.94E-01    4.5                    -7359.6579908623
   145 OT CG       0.94E-01   11.2     0.00019760     -7359.6579909772 -2.53E-02
   146 OT LS       0.94E-01    4.5                    -7359.6819558900
   147 OT CG       0.94E-01   11.2     0.00019332     -7359.6819560848 -2.40E-02
   148 OT LS       0.94E-01    4.5                    -7359.7049598329
   149 OT CG       0.94E-01   11.2     0.00018833     -7359.7049600073 -2.30E-02
   150 OT LS       0.94E-01    4.5                    -7359.7267576594
   151 OT CG       0.94E-01   11.2     0.00018415     -7359.7267576763 -2.18E-02
   152 OT LS       0.95E-01    4.7                    -7359.7478178560
   153 OT CG       0.95E-01   11.2     0.00018041     -7359.7478202073 -2.11E-02
   154 OT LS       0.94E-01    4.5                    -7359.7678680206
   155 OT CG       0.94E-01   11.2     0.00017720     -7359.7678695125 -2.00E-02
   156 OT LS       0.95E-01    4.5                    -7359.7872988063
   157 OT CG       0.95E-01   11.5     0.00017374     -7359.7872991653 -1.94E-02
   158 OT LS       0.94E-01    6.6                    -7359.8058706647
   159 OT CG       0.94E-01   11.2     0.00017067     -7359.8058712028 -1.86E-02
   160 OT LS       0.95E-01    4.5                    -7359.8238545769
   161 OT CG       0.95E-01   11.2     0.00016755     -7359.8238548127 -1.80E-02
   162 OT LS       0.94E-01    4.5                    -7359.8411593417
   163 OT CG       0.94E-01   11.2     0.00016443     -7359.8411594065 -1.73E-02
   164 OT LS       0.95E-01    4.5                    -7359.8578966714
   165 OT CG       0.95E-01   11.2     0.00016132     -7359.8578969398 -1.67E-02
   166 OT LS       0.95E-01    4.5                    -7359.8740278722
   167 OT CG       0.95E-01   11.4     0.00015845     -7359.8740279105 -1.61E-02
   168 OT LS       0.95E-01    4.5                    -7359.8896258654
   169 OT CG       0.95E-01   11.2     0.00015608     -7359.8896259601 -1.56E-02
   170 OT LS       0.95E-01    4.5                    -7359.9046897519
   171 OT CG       0.95E-01   11.2     0.00015313     -7359.9046901262 -1.51E-02
   172 OT LS       0.96E-01    4.5                    -7359.9193848670
   173 OT CG       0.96E-01   11.2     0.00015104     -7359.9193874598 -1.47E-02
   174 OT LS       0.95E-01    4.5                    -7359.9335493033
   175 OT CG       0.95E-01   11.2     0.00014869     -7359.9335505903 -1.42E-02
   176 OT LS       0.95E-01    4.5                    -7359.9473128868
   177 OT CG       0.95E-01   11.2     0.00014609     -7359.9473130109 -1.38E-02
   178 OT LS       0.96E-01    4.5                    -7359.9606732365
   179 OT CG       0.96E-01   11.2     0.00014344     -7359.9606736343 -1.34E-02
   180 OT LS       0.96E-01    4.5                    -7359.9735622390
   181 OT CG       0.96E-01   11.2     0.00014118     -7359.9735622384 -1.29E-02
   182 OT LS       0.95E-01    4.5                    -7359.9859609196
   183 OT CG       0.95E-01   11.4     0.00013868     -7359.9859614915 -1.24E-02
   184 OT LS       0.96E-01    4.5                    -7359.9979666956
   185 OT CG       0.96E-01   11.3     0.00013664     -7359.9979668931 -1.20E-02
   186 OT LS       0.95E-01    5.2                    -7360.0095591996
   187 OT CG       0.95E-01   12.2     0.00013430     -7360.0095595757 -1.16E-02
   188 OT LS       0.96E-01    7.2                    -7360.0208352362
   189 OT CG       0.96E-01   11.3     0.00013239     -7360.0208356901 -1.13E-02
   190 OT LS       0.95E-01    4.5                    -7360.0317569435
   191 OT CG       0.95E-01   11.2     0.00013033     -7360.0317570454 -1.09E-02
   192 OT LS       0.96E-01    4.5                    -7360.0423743057
   193 OT CG       0.96E-01   11.2     0.00012839     -7360.0423744556 -1.06E-02
   194 OT LS       0.95E-01    4.5                    -7360.0526362990
   195 OT CG       0.95E-01   11.2     0.00012640     -7360.0526364746 -1.03E-02
   196 OT LS       0.95E-01    4.5                    -7360.0625997759
   197 OT CG       0.95E-01   11.2     0.00012461     -7360.0625997849 -9.96E-03
   198 OT LS       0.95E-01    4.6                    -7360.0722463306
   199 OT CG       0.95E-01   11.2     0.00012253     -7360.0722464646 -9.65E-03
   200 OT LS       0.96E-01    4.5                    -7360.0816445534
   201 OT CG       0.96E-01   11.2     0.00012104     -7360.0816452375 -9.40E-03
   202 OT LS       0.95E-01    4.5                    -7360.0907726639
   203 OT CG       0.95E-01   11.2     0.00011941     -7360.0907728947 -9.13E-03
   204 OT LS       0.95E-01    4.5                    -7360.0996655722
   205 OT CG       0.95E-01   11.2     0.00011796     -7360.0996655730 -8.89E-03
   206 OT LS       0.95E-01    4.5                    -7360.1083058029
   207 OT CG       0.95E-01   11.2     0.00011591     -7360.1083059658 -8.64E-03
   208 OT LS       0.96E-01    4.5                    -7360.1167258384
   209 OT CG       0.96E-01   11.2     0.00011460     -7360.1167267217 -8.42E-03
   210 OT LS       0.95E-01    4.5                    -7360.1249129394
   211 OT CG       0.95E-01   11.2     0.00011284     -7360.1249132014 -8.19E-03
   212 OT LS       0.96E-01    4.5                    -7360.1328683783
   213 OT CG       0.96E-01   11.4     0.00011161     -7360.1328683968 -7.96E-03
   214 OT LS       0.96E-01    4.5                    -7360.1406732670
   215 OT CG       0.96E-01   11.2     0.00010986     -7360.1406733219 -7.80E-03
   216 OT LS       0.96E-01    4.5                    -7360.1482627293
   217 OT CG       0.96E-01   11.2     0.00010877     -7360.1482628770 -7.59E-03
   218 OT LS       0.96E-01    4.5                    -7360.1557185340
   219 OT CG       0.96E-01   11.2     0.00010744     -7360.1557185598 -7.46E-03
   220 OT LS       0.96E-01    4.5                    -7360.1629909861
   221 OT CG       0.96E-01   11.2     0.00010626     -7360.1629909942 -7.27E-03
   222 OT LS       0.96E-01    4.5                    -7360.1700945577
   223 OT CG       0.96E-01   11.2     0.00010508     -7360.1700945664 -7.10E-03
   224 OT LS       0.96E-01    4.5                    -7360.1770113413
   225 OT CG       0.96E-01   11.2     0.00010367     -7360.1770114266 -6.92E-03
   226 OT LS       0.97E-01    4.5                    -7360.1837941665
   227 OT CG       0.97E-01   11.2     0.00010245     -7360.1837945416 -6.78E-03
   228 OT LS       0.96E-01    4.5                    -7360.1903800024
   229 OT CG       0.96E-01   11.3     0.00010133     -7360.1903803066 -6.59E-03
   230 OT LS       0.96E-01    4.5                    -7360.1968341497
   231 OT CG       0.96E-01   11.2     0.00010001     -7360.1968341651 -6.45E-03
   232 OT LS       0.96E-01    4.5                    -7360.2031191352
   233 OT CG       0.96E-01   14.2     0.00009881     -7360.2031191367 -6.28E-03
   234 OT LS       0.97E-01    4.5                    -7360.2092786957
   235 OT CG       0.97E-01   11.2     0.00009788     -7360.2092787918 -6.16E-03
   236 OT LS       0.96E-01    4.5                    -7360.2152990204
   237 OT CG       0.96E-01   11.2     0.00009682     -7360.2152991576 -6.02E-03
   238 OT LS       0.96E-01    4.5                    -7360.2211761615
   239 OT CG       0.96E-01   11.2     0.00009578     -7360.2211761895 -5.88E-03
   240 OT LS       0.96E-01    4.5                    -7360.2269239048
   241 OT CG       0.96E-01   11.2     0.00009444     -7360.2269239048 -5.75E-03
   242 OT LS       0.96E-01    4.5                    -7360.2325420977
   243 OT CG       0.96E-01   11.2     0.00009353     -7360.2325422713 -5.62E-03
   244 OT LS       0.96E-01    4.5                    -7360.2380293644
   245 OT CG       0.96E-01   11.2     0.00009241     -7360.2380294992 -5.49E-03
   246 OT LS       0.96E-01    4.5                    -7360.2433893899
   247 OT CG       0.96E-01   11.2     0.00009138     -7360.2433893908 -5.36E-03
   248 OT LS       0.96E-01    4.5                    -7360.2486146701
   249 OT CG       0.96E-01   11.2     0.00009031     -7360.2486147019 -5.23E-03
   250 OT LS       0.96E-01    4.5                    -7360.2537207670
   251 OT CG       0.96E-01   11.2     0.00008922     -7360.2537207678 -5.11E-03
   252 OT LS       0.96E-01    4.5                    -7360.2587286674
   253 OT CG       0.96E-01   11.2     0.00008818     -7360.2587287673 -5.01E-03
   254 OT LS       0.96E-01    4.5                    -7360.2636261060
   255 OT CG       0.96E-01   11.2     0.00008718     -7360.2636261092 -4.90E-03
   256 OT LS       0.97E-01    4.5                    -7360.2684262116
   257 OT CG       0.97E-01   11.2     0.00008611     -7360.2684262570 -4.80E-03
   258 OT LS       0.97E-01    4.5                    -7360.2731307820
   259 OT CG       0.97E-01   11.4     0.00008534     -7360.2731308891 -4.70E-03
   260 OT LS       0.97E-01    4.5                    -7360.2777351732
   261 OT CG       0.97E-01   12.4     0.00008439     -7360.2777352444 -4.60E-03
   262 OT LS       0.97E-01    4.6                    -7360.2822464827
   263 OT CG       0.97E-01   13.9     0.00008362     -7360.2822464975 -4.51E-03
   264 OT LS       0.97E-01    4.5                    -7360.2866670455
   265 OT CG       0.97E-01   11.2     0.00008258     -7360.2866670585 -4.42E-03
   266 OT LS       0.97E-01    4.5                    -7360.2909895123
   267 OT CG       0.97E-01   11.2     0.00008185     -7360.2909895442 -4.32E-03
   268 OT LS       0.97E-01    4.5                    -7360.2952262041
   269 OT CG       0.97E-01   11.2     0.00008108     -7360.2952262301 -4.24E-03
   270 OT LS       0.97E-01    4.5                    -7360.2993828713
   271 OT CG       0.97E-01   11.2     0.00008024     -7360.2993828720 -4.16E-03
   272 OT LS       0.97E-01    4.5                    -7360.3034565948
   273 OT CG       0.97E-01   11.2     0.00007938     -7360.3034565982 -4.07E-03
   274 OT LS       0.97E-01    4.5                    -7360.3074465778
   275 OT CG       0.97E-01   11.2     0.00007883     -7360.3074465817 -3.99E-03
   276 OT LS       0.97E-01    4.5                    -7360.3113677069
   277 OT CG       0.97E-01   11.2     0.00007801     -7360.3113677605 -3.92E-03
   278 OT LS       0.97E-01    4.5                    -7360.3152110927
   279 OT CG       0.97E-01   11.2     0.00007731     -7360.3152110941 -3.84E-03
   280 OT LS       0.97E-01    4.5                    -7360.3189929796
   281 OT CG       0.97E-01   11.2     0.00007653     -7360.3189929988 -3.78E-03
   282 OT LS       0.97E-01    4.5                    -7360.3226901470
   283 OT CG       0.97E-01   11.2     0.00007586     -7360.3226901687 -3.70E-03
   284 OT LS       0.97E-01    4.5                    -7360.3263287529
   285 OT CG       0.97E-01   11.2     0.00007517     -7360.3263287604 -3.64E-03
   286 OT LS       0.96E-01    4.5                    -7360.3298911508
   287 OT CG       0.96E-01   11.2     0.00007449     -7360.3298911838 -3.56E-03
   288 OT LS       0.97E-01    4.5                    -7360.3334010206
   289 OT CG       0.97E-01   11.2     0.00007383     -7360.3334010653 -3.51E-03
   290 OT LS       0.96E-01    4.7                    -7360.3368349417
   291 OT CG       0.96E-01   11.2     0.00007315     -7360.3368349983 -3.43E-03
   292 OT LS       0.97E-01    4.5                    -7360.3402197341
   293 OT CG       0.97E-01   11.2     0.00007251     -7360.3402197846 -3.38E-03
   294 OT LS       0.97E-01    4.5                    -7360.3435459626
   295 OT CG       0.97E-01   11.2     0.00007173     -7360.3435459626 -3.33E-03
   296 OT LS       0.97E-01    4.5                    -7360.3468185271
   297 OT CG       0.97E-01   11.2     0.00007111     -7360.3468186313 -3.27E-03
   298 OT LS       0.97E-01    4.5                    -7360.3500343302
   299 OT CG       0.97E-01   11.2     0.00007040     -7360.3500343301 -3.22E-03
   300 OT LS       0.98E-01    4.5                    -7360.3531962771
   301 OT CG       0.98E-01   11.2     0.00006992     -7360.3531963032 -3.16E-03
   302 OT LS       0.97E-01    4.5                    -7360.3563026142
   303 OT CG       0.97E-01   11.2     0.00006928     -7360.3563026608 -3.11E-03
   304 OT LS       0.98E-01    4.5                    -7360.3593745083
   305 OT CG       0.98E-01   11.3     0.00006874     -7360.3593746764 -3.07E-03
   306 OT LS       0.98E-01    4.5                    -7360.3623881766
   307 OT CG       0.98E-01   11.2     0.00006819     -7360.3623882169 -3.01E-03
   308 OT LS       0.98E-01    4.5                    -7360.3653558746
   309 OT CG       0.98E-01   12.7     0.00006774     -7360.3653558759 -2.97E-03
   310 OT LS       0.97E-01    4.5                    -7360.3682690646
   311 OT CG       0.97E-01   11.2     0.00006712     -7360.3682691444 -2.91E-03
   312 OT LS       0.97E-01    4.5                    -7360.3711379433
   313 OT CG       0.97E-01   11.2     0.00006664     -7360.3711379691 -2.87E-03
   314 OT LS       0.97E-01    4.5                    -7360.3739574308
   315 OT CG       0.97E-01   11.2     0.00006604     -7360.3739574566 -2.82E-03
   316 OT LS       0.97E-01    4.5                    -7360.3767343281
   317 OT CG       0.97E-01   11.2     0.00006552     -7360.3767343500 -2.78E-03
   318 OT LS       0.97E-01    4.5                    -7360.3794692136
   319 OT CG       0.97E-01   11.2     0.00006508     -7360.3794692139 -2.73E-03
   320 OT LS       0.97E-01    4.5                    -7360.3821527492
   321 OT CG       0.97E-01   11.3     0.00006462     -7360.3821528219 -2.68E-03
   322 OT LS       0.97E-01    4.5                    -7360.3848011465
   323 OT CG       0.97E-01   11.2     0.00006407     -7360.3848011491 -2.65E-03
   324 OT LS       0.97E-01    4.5                    -7360.3874075494
   325 OT CG       0.97E-01   11.2     0.00006361     -7360.3874075524 -2.61E-03
   326 OT LS       0.97E-01    4.5                    -7360.3899770339
   327 OT CG       0.97E-01   11.2     0.00006306     -7360.3899770340 -2.57E-03
   328 OT LS       0.97E-01    4.5                    -7360.3925024835
   329 OT CG       0.97E-01   11.2     0.00006254     -7360.3925024832 -2.53E-03
   330 OT LS       0.97E-01    4.5                    -7360.3949901945
   331 OT CG       0.97E-01   11.2     0.00006203     -7360.3949902043 -2.49E-03
   332 OT LS       0.97E-01    4.5                    -7360.3974385709
   333 OT CG       0.97E-01   11.2     0.00006157     -7360.3974385710 -2.45E-03
   334 OT LS       0.97E-01    4.5                    -7360.3998533608
   335 OT CG       0.97E-01   11.2     0.00006095     -7360.3998533622 -2.41E-03
   336 OT LS       0.98E-01    4.6                    -7360.4022352227
   337 OT CG       0.98E-01   12.1     0.00006049     -7360.4022353169 -2.38E-03
   338 OT LS       0.98E-01    4.5                    -7360.4045766320
   339 OT CG       0.98E-01   13.5     0.00006008     -7360.4045766382 -2.34E-03
   340 OT LS       0.98E-01    4.5                    -7360.4068778962
   341 OT CG       0.98E-01   11.2     0.00005956     -7360.4068779211 -2.30E-03
   342 OT LS       0.98E-01    4.5                    -7360.4091499760
   343 OT CG       0.98E-01   11.2     0.00005905     -7360.4091500167 -2.27E-03
   344 OT LS       0.98E-01    4.5                    -7360.4113775056
   345 OT CG       0.98E-01   11.2     0.00005856     -7360.4113775233 -2.23E-03
   346 OT LS       0.98E-01    4.5                    -7360.4135742157
   347 OT CG       0.98E-01   11.2     0.00005805     -7360.4135742334 -2.20E-03
   348 OT LS       0.98E-01    4.5                    -7360.4157294713
   349 OT CG       0.98E-01   11.2     0.00005765     -7360.4157294748 -2.16E-03
   350 OT LS       0.98E-01    4.5                    -7360.4178505541
   351 OT CG       0.98E-01   11.3     0.00005715     -7360.4178505668 -2.12E-03
   352 OT LS       0.98E-01    4.5                    -7360.4199344144
   353 OT CG       0.98E-01   11.2     0.00005671     -7360.4199344146 -2.08E-03
   354 OT LS       0.98E-01    4.5                    -7360.4219892429
   355 OT CG       0.98E-01   11.2     0.00005614     -7360.4219892480 -2.05E-03
   356 OT LS       0.98E-01    4.5                    -7360.4240031061
   357 OT CG       0.98E-01   11.2     0.00005575     -7360.4240031063 -2.01E-03
   358 OT LS       0.97E-01    4.5                    -7360.4259837384
   359 OT CG       0.97E-01   11.2     0.00005533     -7360.4259837570 -1.98E-03
   360 OT LS       0.97E-01    4.5                    -7360.4279331461
   361 OT CG       0.97E-01   11.2     0.00005483     -7360.4279331480 -1.95E-03
   362 OT LS       0.98E-01    4.5                    -7360.4298573752
   363 OT CG       0.98E-01   11.2     0.00005444     -7360.4298574299 -1.92E-03
   364 OT LS       0.97E-01    4.5                    -7360.4317443524
   365 OT CG       0.97E-01   11.2     0.00005402     -7360.4317443950 -1.89E-03
   366 OT LS       0.98E-01    4.5                    -7360.4336058123
   367 OT CG       0.98E-01   11.3     0.00005361     -7360.4336058165 -1.86E-03
   368 OT LS       0.97E-01    4.5                    -7360.4354351610
   369 OT CG       0.97E-01   11.2     0.00005314     -7360.4354351708 -1.83E-03
   370 OT LS       0.98E-01    4.5                    -7360.4372360647
   371 OT CG       0.98E-01   11.2     0.00005264     -7360.4372360709 -1.80E-03
   372 OT LS       0.98E-01    4.5                    -7360.4390051448
   373 OT CG       0.98E-01   11.2     0.00005227     -7360.4390051494 -1.77E-03
   374 OT LS       0.98E-01    4.5                    -7360.4407467954
   375 OT CG       0.98E-01   11.2     0.00005183     -7360.4407468007 -1.74E-03
   376 OT LS       0.98E-01    4.5                    -7360.4424608194
   377 OT CG       0.98E-01   11.2     0.00005138     -7360.4424608201 -1.71E-03
   378 OT LS       0.98E-01    4.5                    -7360.4441545834
   379 OT CG       0.98E-01   11.2     0.00005090     -7360.4441546421 -1.69E-03
   380 OT LS       0.98E-01    4.5                    -7360.4458164171
   381 OT CG       0.98E-01   11.2     0.00005043     -7360.4458164174 -1.66E-03
   382 OT LS       0.99E-01    4.5                    -7360.4474562449
   383 OT CG       0.99E-01   11.2     0.00005001     -7360.4474562918 -1.64E-03
   384 OT LS       0.98E-01    4.5                    -7360.4490627255
   385 OT CG       0.98E-01   12.6     0.00004959     -7360.4490627517 -1.61E-03
   386 OT LS       0.98E-01    4.5                    -7360.4506421584
   387 OT CG       0.98E-01   11.2     0.00004914     -7360.4506421584 -1.58E-03
   388 OT LS       0.98E-01    4.5                    -7360.4521884653
   389 OT CG       0.98E-01   11.2     0.00004870     -7360.4521884752 -1.55E-03
   390 OT LS       0.98E-01    4.5                    -7360.4537089440
   391 OT CG       0.98E-01   11.2     0.00004835     -7360.4537089447 -1.52E-03
   392 OT LS       0.97E-01    4.5                    -7360.4551984294
   393 OT CG       0.97E-01   11.2     0.00004790     -7360.4551984881 -1.49E-03
   394 OT LS       0.98E-01    4.5                    -7360.4566643983
   395 OT CG       0.98E-01   11.2     0.00004752     -7360.4566644126 -1.47E-03
   396 OT LS       0.98E-01    4.5                    -7360.4581037910
   397 OT CG       0.98E-01   11.4     0.00004705     -7360.4581037978 -1.44E-03
   398 OT LS       0.98E-01    4.5                    -7360.4595227720
   399 OT CG       0.98E-01   11.2     0.00004663     -7360.4595228157 -1.42E-03
   400 OT LS       0.98E-01    4.5                    -7360.4609140091
   401 OT CG       0.98E-01   11.2     0.00004631     -7360.4609140150 -1.39E-03
   402 OT LS       0.98E-01    4.5                    -7360.4622814064
   403 OT CG       0.98E-01   11.2     0.00004583     -7360.4622814220 -1.37E-03
   404 OT LS       0.98E-01    4.5                    -7360.4636204184
   405 OT CG       0.98E-01   11.2     0.00004541     -7360.4636204184 -1.34E-03
   406 OT LS       0.98E-01    4.5                    -7360.4649392116
   407 OT CG       0.98E-01   11.2     0.00004503     -7360.4649392231 -1.32E-03
   408 OT LS       0.98E-01    4.5                    -7360.4662323760
   409 OT CG       0.98E-01   11.2     0.00004465     -7360.4662323866 -1.29E-03
   410 OT LS       0.98E-01    4.5                    -7360.4675035616
   411 OT CG       0.98E-01   11.2     0.00004429     -7360.4675035617 -1.27E-03
   412 OT LS       0.98E-01    4.5                    -7360.4687579175
   413 OT CG       0.98E-01   12.4     0.00004391     -7360.4687579282 -1.25E-03
   414 OT LS       0.98E-01    4.8                    -7360.4699953862
   415 OT CG       0.98E-01   12.5     0.00004359     -7360.4699954052 -1.24E-03
   416 OT LS       0.98E-01    4.5                    -7360.4712152270
   417 OT CG       0.98E-01   11.2     0.00004324     -7360.4712152271 -1.22E-03
   418 OT LS       0.98E-01    4.5                    -7360.4724180240
   419 OT CG       0.98E-01   11.2     0.00004289     -7360.4724180291 -1.20E-03
   420 OT LS       0.98E-01    4.5                    -7360.4736012351
   421 OT CG       0.98E-01   11.2     0.00004249     -7360.4736012351 -1.18E-03
   422 OT LS       0.99E-01    4.5                    -7360.4747642700
   423 OT CG       0.99E-01   11.2     0.00004218     -7360.4747642732 -1.16E-03
   424 OT LS       0.99E-01    4.5                    -7360.4759097516
   425 OT CG       0.99E-01   11.2     0.00004181     -7360.4759097519 -1.15E-03
   426 OT LS       0.99E-01    4.5                    -7360.4770353408
   427 OT CG       0.99E-01   11.2     0.00004147     -7360.4770353408 -1.13E-03
   428 OT LS       0.99E-01    4.6                    -7360.4781423381
   429 OT CG       0.99E-01   11.2     0.00004115     -7360.4781423382 -1.11E-03
   430 OT LS       0.98E-01    4.5                    -7360.4792298224
   431 OT CG       0.98E-01   11.2     0.00004091     -7360.4792298290 -1.09E-03
   432 OT LS       0.98E-01    4.5                    -7360.4802997865
   433 OT CG       0.98E-01   11.2     0.00004059     -7360.4802998070 -1.07E-03
   434 OT LS       0.98E-01    4.5                    -7360.4813567150
   435 OT CG       0.98E-01   11.2     0.00004029     -7360.4813567247 -1.06E-03
   436 OT LS       0.98E-01    4.5                    -7360.4823984896
   437 OT CG       0.98E-01   11.2     0.00004000     -7360.4823984902 -1.04E-03
   438 OT LS       0.98E-01    4.5                    -7360.4834222826
   439 OT CG       0.98E-01   11.2     0.00003976     -7360.4834222917 -1.02E-03
   440 OT LS       0.98E-01    4.5                    -7360.4844325759
   441 OT CG       0.98E-01   11.2     0.00003944     -7360.4844325774 -1.01E-03
   442 OT LS       0.98E-01    4.5                    -7360.4854306355
   443 OT CG       0.98E-01   11.3     0.00003915     -7360.4854306490 -9.98E-04
   444 OT LS       0.98E-01    4.5                    -7360.4864151472
   445 OT CG       0.98E-01   11.2     0.00003894     -7360.4864151485 -9.84E-04
   446 OT LS       0.98E-01    4.5                    -7360.4873854808
   447 OT CG       0.98E-01   11.2     0.00003865     -7360.4873854939 -9.70E-04
   448 OT LS       0.98E-01    4.5                    -7360.4883422134
   449 OT CG       0.98E-01   11.2     0.00003840     -7360.4883422140 -9.57E-04
   450 OT LS       0.98E-01    4.5                    -7360.4892870811
   451 OT CG       0.98E-01   11.2     0.00003816     -7360.4892870811 -9.45E-04
   452 OT LS       0.98E-01    4.5                    -7360.4902186306
   453 OT CG       0.98E-01   11.2     0.00003786     -7360.4902186325 -9.32E-04
   454 OT LS       0.98E-01    4.5                    -7360.4911387912
   455 OT CG       0.98E-01   11.2     0.00003760     -7360.4911388037 -9.20E-04
   456 OT LS       0.98E-01    4.5                    -7360.4920462043
   457 OT CG       0.98E-01   11.2     0.00003735     -7360.4920462044 -9.07E-04
   458 OT LS       0.98E-01    4.5                    -7360.4929423291
   459 OT CG       0.98E-01   11.3     0.00003709     -7360.4929423292 -8.96E-04
   460 OT LS       0.99E-01    4.7                    -7360.4938282412
   461 OT CG       0.99E-01   12.6     0.00003688     -7360.4938282485 -8.86E-04
   462 OT LS       0.99E-01    4.5                    -7360.4947063426
   463 OT CG       0.99E-01   11.2     0.00003664     -7360.4947063486 -8.78E-04
   464 OT LS       0.99E-01    4.5                    -7360.4955715550
   465 OT CG       0.99E-01   11.2     0.00003646     -7360.4955715575 -8.65E-04
   466 OT LS       0.99E-01    4.5                    -7360.4964286997
   467 OT CG       0.99E-01   11.2     0.00003628     -7360.4964286997 -8.57E-04
   468 OT LS       0.98E-01    4.5                    -7360.4972720732
   469 OT CG       0.98E-01   11.2     0.00003602     -7360.4972721091 -8.43E-04
   470 OT LS       0.98E-01    4.5                    -7360.4981069573
   471 OT CG       0.98E-01   11.2     0.00003582     -7360.4981069733 -8.35E-04
   472 OT LS       0.98E-01    4.5                    -7360.4989309427
   473 OT CG       0.98E-01   11.2     0.00003558     -7360.4989309461 -8.24E-04
   474 OT LS       0.98E-01    4.6                    -7360.4997453321
   475 OT CG       0.98E-01   11.2     0.00003534     -7360.4997453353 -8.14E-04
   476 OT LS       0.99E-01    4.5                    -7360.5005503442
   477 OT CG       0.99E-01   11.2     0.00003522     -7360.5005503459 -8.05E-04
   478 OT LS       0.98E-01    4.5                    -7360.5013463840
   479 OT CG       0.98E-01   11.2     0.00003499     -7360.5013463982 -7.96E-04
   480 OT LS       0.99E-01    4.5                    -7360.5021351253
   481 OT CG       0.99E-01   11.2     0.00003484     -7360.5021351394 -7.89E-04
   482 OT LS       0.98E-01    4.5                    -7360.5029155724
   483 OT CG       0.98E-01   11.2     0.00003462     -7360.5029155759 -7.80E-04
   484 OT LS       0.98E-01    4.5                    -7360.5036853422
   485 OT CG       0.98E-01   11.2     0.00003446     -7360.5036853443 -7.70E-04
   486 OT LS       0.98E-01    4.5                    -7360.5044471730
   487 OT CG       0.98E-01   11.2     0.00003420     -7360.5044471736 -7.62E-04
   488 OT LS       0.99E-01    4.6                    -7360.5051998107
   489 OT CG       0.99E-01   12.3     0.00003403     -7360.5051998192 -7.53E-04
   490 OT LS       0.98E-01    4.9                    -7360.5059422786
   491 OT CG       0.98E-01   12.7     0.00003381     -7360.5059422884 -7.42E-04
   492 OT LS       0.98E-01    4.5                    -7360.5066742709
   493 OT CG       0.98E-01   11.2     0.00003358     -7360.5066742727 -7.32E-04
   494 OT LS       0.98E-01    4.5                    -7360.5073990027
   495 OT CG       0.98E-01   11.2     0.00003339     -7360.5073990134 -7.25E-04
   496 OT LS       0.98E-01    4.5                    -7360.5081136337
   497 OT CG       0.98E-01   11.2     0.00003318     -7360.5081136385 -7.15E-04
   498 OT LS       0.98E-01    4.5                    -7360.5088201276
   499 OT CG       0.98E-01   11.2     0.00003297     -7360.5088201282 -7.06E-04
   500 OT LS       0.98E-01    4.5                    -7360.5095155802

  Leaving inner SCF loop after reaching   500 steps.


  Electronic density on regular grids:      -3255.9999970831        0.0000029169
  Core density on regular grids:             3255.9999998009       -0.0000001991
  Total charge density on r-space grids:        0.0000027178
  Total charge density g-space grids:           0.0000027178

  Overlap energy of the core charge distribution:               0.00000865583387
  Self energy of the core charge distribution:             -18940.21307405635889
  Core Hamiltonian energy:                                   5372.52738381136714
  Hartree energy:                                            7924.06244260541189
  Exchange-correlation energy:                              -1714.77354197386808
  Dispersion energy:                                           -2.11273462260916

  Total energy:                                             -7360.50951558022462

  outer SCF iter =    1 RMS gradient =   0.33E-04 energy =      -7360.5095155802

  ----------------------------------- OT ---------------------------------------
  Minimizer      : CG                  : conjugate gradient
  Preconditioner : FULL_ALL            : diagonalization, state selective
  Precond_solver : DEFAULT
  Line search    : 2PNT                : 2 energies, one gradient
  stepsize       :    0.15000000                  energy_gap     :    0.00100000
  eps_taylor     :   0.10000E-15                  max_taylor     :             4
  ----------------------------------- OT ---------------------------------------

  Step     Update method      Time    Convergence         Total energy    Change
  ------------------------------------------------------------------------------
     1 OT CG       0.15E+00   46.9     0.00023396     -7360.5095155869 -6.95E-04
     2 OT LS       0.25E+00    4.2                    -7360.5845334986
     3 OT CG       0.25E+00   11.0     0.00001156     -7360.5986218621 -8.91E-02
     4 OT LS       0.79E-01    4.2                    -7360.5983741541
     5 OT CG       0.79E-01   11.0     0.00000358     -7360.5986909541 -6.91E-05
     6 OT LS       0.62E-01    4.2                    -7360.5986957901
     7 OT CG       0.62E-01   11.0     0.00000131     -7360.5986961732 -5.22E-06
     8 OT LS       0.12E+00    4.2                    -7360.5986972102
     9 OT CG       0.12E+00   11.0     0.00000047     -7360.5986975211 -1.35E-06

  *** SCF run converged in     9 steps ***


  Electronic density on regular grids:      -3255.9999970834        0.0000029166
  Core density on regular grids:             3255.9999998009       -0.0000001991
  Total charge density on r-space grids:        0.0000027175
  Total charge density g-space grids:           0.0000027175

  Overlap energy of the core charge distribution:               0.00000865583387
  Self energy of the core charge distribution:             -18940.21307405635889
  Core Hamiltonian energy:                                   5372.26242035312225
  Hartree energy:                                            7924.21300028545738
  Exchange-correlation energy:                              -1714.74831813654714
  Dispersion energy:                                           -2.11273462260916

  Total energy:                                             -7360.59869752110262

  outer SCF iter =    2 RMS gradient =   0.47E-06 energy =      -7360.5986975211
  outer SCF loop converged in   2 iterations or  509 steps


 ENERGY| Total FORCE_EVAL ( QS ) energy [a.u.]:            -7360.598697652998453

 ATOMIC FORCES in [a.u.]

 # Atom   Kind   Element          X              Y              Z
      1      1      Ti          0.00000000     0.00000000     0.00000000
      2      2      Si          0.00000000     0.00000000     0.00000000
      3      2      Si          0.00000000     0.00000000     0.00000000
      4      2      Si          0.00000000     0.00000000     0.00000000
      5      2      Si          0.00000000     0.00000000     0.00000000
      6      2      Si          0.00000000     0.00000000     0.00000000
      7      2      Si          0.00000000     0.00000000     0.00000000
      8      2      Si          0.00000000     0.00000000     0.00000000
      9      2      Si          0.00000000     0.00000000     0.00000000
     10      2      Si          0.00000000     0.00000000     0.00000000
     11      2      Si          0.00000000     0.00000000     0.00000000
     12      2      Si          0.00000000     0.00000000     0.00000000
     13      2      Si          0.00000000     0.00000000     0.00000000
     14      2      Si          0.00000000     0.00000000     0.00000000
     15      2      Si          0.00000000     0.00000000     0.00000000
     16      2      Si          0.00000000     0.00000000     0.00000000
     17      2      Si          0.00000000     0.00000000     0.00000000
     18      2      Si          0.00000000     0.00000000     0.00000000
     19      2      Si          0.00000000     0.00000000     0.00000000
     20      2      Si          0.00000000     0.00000000     0.00000000
     21      2      Si          0.00000000     0.00000000     0.00000000
     22      2      Si          0.00000000     0.00000000     0.00000000
     23      2      Si          0.00000000     0.00000000     0.00000000
     24      2      Si          0.00000000     0.00000000     0.00000000
     25      2      Si          0.00000000     0.00000000     0.00000000
     26      2      Si          0.00000000     0.00000000     0.00000000
     27      2      Si          0.00000000     0.00000000     0.00000000
     28      2      Si          0.00000000     0.00000000     0.00000000
     29      2      Si          0.00000000     0.00000000     0.00000000
     30      2      Si          0.00000000     0.00000000     0.00000000
     31      2      Si          0.00000000     0.00000000     0.00000000
     32      2      Si          0.00000000     0.00000000     0.00000000
     33      2      Si          0.00000000     0.00000000     0.00000000
     34      2      Si          0.00000000     0.00000000     0.00000000
     35      2      Si          0.00000000     0.00000000     0.00000000
     36      2      Si          0.00000000     0.00000000     0.00000000
     37      2      Si          0.00000000     0.00000000     0.00000000
     38      2      Si          0.00000000     0.00000000     0.00000000
     39      2      Si          0.00000000     0.00000000     0.00000000
     40      2      Si          0.00000000     0.00000000     0.00000000
     41      2      Si          0.00000000     0.00000000     0.00000000
     42      2      Si          0.00000000     0.00000000     0.00000000
     43      2      Si          0.00000000     0.00000000     0.00000000
     44      2      Si          0.00000000     0.00000000     0.00000000
     45      2      Si          0.00000000     0.00000000     0.00000000
     46      2      Si          0.00000000     0.00000000     0.00000000
     47      2      Si          0.00000000     0.00000000     0.00000000
     48      2      Si          0.00000000     0.00000000     0.00000000
     49      2      Si          0.00000000     0.00000000     0.00000000
     50      2      Si          0.00000000     0.00000000     0.00000000
     51      2      Si          0.00000000     0.00000000     0.00000000
     52      2      Si          0.00000000     0.00000000     0.00000000
     53      2      Si          0.00000000     0.00000000     0.00000000
     54      2      Si          0.00000000     0.00000000     0.00000000
     55      2      Si          0.00000000     0.00000000     0.00000000
     56      2      Si          0.00000000     0.00000000     0.00000000
     57      2      Si          0.00000000     0.00000000     0.00000000
     58      2      Si          0.00000000     0.00000000     0.00000000
     59      2      Si          0.00000000     0.00000000     0.00000000
     60      2      Si          0.00000000     0.00000000     0.00000000
     61      2      Si          0.00000000     0.00000000     0.00000000
     62      2      Si          0.00000000     0.00000000     0.00000000
     63      2      Si          0.00000000     0.00000000     0.00000000
     64      2      Si          0.00000000     0.00000000     0.00000000
     65      2      Si          0.00000000     0.00000000     0.00000000
     66      2      Si          0.00000000     0.00000000     0.00000000
     67      2      Si          0.00000000     0.00000000     0.00000000
     68      2      Si          0.00000000     0.00000000     0.00000000
     69      2      Si          0.00000000     0.00000000     0.00000000
     70      2      Si          0.00000000     0.00000000     0.00000000
     71      2      Si          0.00000000     0.00000000     0.00000000
     72      2      Si          0.00000000     0.00000000     0.00000000
     73      2      Si          0.00000000     0.00000000     0.00000000
     74      2      Si          0.00000000     0.00000000     0.00000000
     75      2      Si          0.00000000     0.00000000     0.00000000
     76      2      Si          0.00000000     0.00000000     0.00000000
     77      2      Si          0.00000000     0.00000000     0.00000000
     78      2      Si          0.00000000     0.00000000     0.00000000
     79      2      Si          0.00000000     0.00000000     0.00000000
     80      2      Si          0.00000000     0.00000000     0.00000000
     81      2      Si          0.00000000     0.00000000     0.00000000
     82      2      Si          0.00000000     0.00000000     0.00000000
     83      2      Si          0.00000000     0.00000000     0.00000000
     84      2      Si          0.00000000     0.00000000     0.00000000
     85      2      Si          0.00000000     0.00000000     0.00000000
     86      2      Si          0.00000000     0.00000000     0.00000000
     87      2      Si          0.00000000     0.00000000     0.00000000
     88      2      Si          0.00000000     0.00000000     0.00000000
     89      2      Si          0.00000000     0.00000000     0.00000000
     90      2      Si          0.00000000     0.00000000     0.00000000
     91      2      Si          0.00000000     0.00000000     0.00000000
     92      2      Si          0.00000000     0.00000000     0.00000000
     93      2      Si          0.00000000     0.00000000     0.00000000
     94      2      Si          0.00000000     0.00000000     0.00000000
     95      2      Si          0.00000000     0.00000000     0.00000000
     96      2      Si          0.00000000     0.00000000     0.00000000
     97      2      Si          0.00000000     0.00000000     0.00000000
     98      2      Si          0.00000000     0.00000000     0.00000000
     99      2      Si          0.00000000     0.00000000     0.00000000
    100      2      Si          0.00000000     0.00000000     0.00000000
    101      2      Si          0.00000000     0.00000000     0.00000000
    102      2      Si          0.00000000     0.00000000     0.00000000
    103      2      Si          0.00000000     0.00000000     0.00000000
    104      2      Si          0.00000000     0.00000000     0.00000000
    105      2      Si          0.00000000     0.00000000     0.00000000
    106      2      Si          0.00000000     0.00000000     0.00000000
    107      2      Si          0.00000000     0.00000000     0.00000000
    108      2      Si          0.00000000     0.00000000     0.00000000
    109      2      Si          0.00000000     0.00000000     0.00000000
    110      2      Si          0.00000000     0.00000000     0.00000000
    111      2      Si          0.00000000     0.00000000     0.00000000
    112      2      Si          0.00000000     0.00000000     0.00000000
    113      2      Si          0.00000000     0.00000000     0.00000000
    114      2      Si          0.00000000     0.00000000     0.00000000
    115      2      Si          0.00000000     0.00000000     0.00000000
    116      2      Si          0.00000000     0.00000000     0.00000000
    117      2      Si          0.00000000     0.00000000     0.00000000
    118      2      Si          0.00000000     0.00000000     0.00000000
    119      2      Si          0.00000000     0.00000000     0.00000000
    120      2      Si          0.00000000     0.00000000     0.00000000
    121      2      Si          0.00000000     0.00000000     0.00000000
    122      2      Si          0.00000000     0.00000000     0.00000000
    123      2      Si          0.00000000     0.00000000     0.00000000
    124      2      Si          0.00000000     0.00000000     0.00000000
    125      2      Si          0.00000000     0.00000000     0.00000000
    126      2      Si          0.00000000     0.00000000     0.00000000
    127      2      Si          0.00000000     0.00000000     0.00000000
    128      2      Si          0.00000000     0.00000000     0.00000000
    129      2      Si          0.00000000     0.00000000     0.00000000
    130      2      Si          0.00000000     0.00000000     0.00000000
    131      2      Si          0.00000000     0.00000000     0.00000000
    132      2      Si          0.00000000     0.00000000     0.00000000
    133      2      Si          0.00000000     0.00000000     0.00000000
    134      2      Si          0.00000000     0.00000000     0.00000000
    135      2      Si          0.00000000     0.00000000     0.00000000
    136      2      Si          0.00000000     0.00000000     0.00000000
    137      2      Si          0.00000000     0.00000000     0.00000000
    138      2      Si          0.00000000     0.00000000     0.00000000
    139      2      Si          0.00000000     0.00000000     0.00000000
    140      2      Si          0.00000000     0.00000000     0.00000000
    141      2      Si          0.00000000     0.00000000     0.00000000
    142      2      Si          0.00000000     0.00000000     0.00000000
    143      2      Si          0.00000000     0.00000000     0.00000000
    144      2      Si          0.00000000     0.00000000     0.00000000
    145      2      Si          0.00000000     0.00000000     0.00000000
    146      2      Si          0.00000000     0.00000000     0.00000000
    147      2      Si          0.00000000     0.00000000     0.00000000
    148      2      Si          0.00000000     0.00000000     0.00000000
    149      2      Si          0.00000000     0.00000000     0.00000000
    150      2      Si          0.00000000     0.00000000     0.00000000
    151      2      Si          0.00000000     0.00000000     0.00000000
    152      2      Si          0.00000000     0.00000000     0.00000000
    153      2      Si          0.00000000     0.00000000     0.00000000
    154      2      Si          0.00000000     0.00000000     0.00000000
    155      2      Si          0.00000000     0.00000000     0.00000000
    156      2      Si          0.00000000     0.00000000     0.00000000
    157      2      Si          0.00000000     0.00000000     0.00000000
    158      2      Si          0.00000000     0.00000000     0.00000000
    159      2      Si          0.00000000     0.00000000     0.00000000
    160      2      Si          0.00000000     0.00000000     0.00000000
    161      2      Si          0.00000000     0.00000000     0.00000000
    162      2      Si          0.00000000     0.00000000     0.00000000
    163      2      Si          0.00000000     0.00000000     0.00000000
    164      2      Si          0.00000000     0.00000000     0.00000000
    165      2      Si          0.00000000     0.00000000     0.00000000
    166      2      Si          0.00000000     0.00000000     0.00000000
    167      2      Si          0.00000000     0.00000000     0.00000000
    168      2      Si          0.00000000     0.00000000     0.00000000
    169      2      Si          0.00000000     0.00000000     0.00000000
    170      2      Si          0.00000000     0.00000000     0.00000000
    171      2      Si          0.00000000     0.00000000     0.00000000
    172      2      Si          0.00000000     0.00000000     0.00000000
    173      2      Si          0.00000000     0.00000000     0.00000000
    174      2      Si          0.00000000     0.00000000     0.00000000
    175      2      Si          0.00000000     0.00000000     0.00000000
    176      2      Si          0.00000000     0.00000000     0.00000000
    177      2      Si          0.00000000     0.00000000     0.00000000
    178      2      Si          0.00000000     0.00000000     0.00000000
    179      2      Si          0.00000000     0.00000000     0.00000000
    180      2      Si          0.00000000     0.00000000     0.00000000
    181      2      Si          0.00000000     0.00000000     0.00000000
    182      2      Si          0.00000000     0.00000000     0.00000000
    183      2      Si          0.00000000     0.00000000     0.00000000
    184      2      Si          0.00000000     0.00000000     0.00000000
    185      2      Si          0.00000000     0.00000000     0.00000000
    186      2      Si          0.00000000     0.00000000     0.00000000
    187      2      Si          0.00000000     0.00000000     0.00000000
    188      2      Si          0.00000000     0.00000000     0.00000000
    189      2      Si          0.00000000     0.00000000     0.00000000
    190      2      Si          0.00000000     0.00000000     0.00000000
    191      2      Si          0.00000000     0.00000000     0.00000000
    192      3      O           0.00000000     0.00000000     0.00000000
    193      3      O           0.00000000     0.00000000     0.00000000
    194      3      O           0.00000000     0.00000000     0.00000000
    195      3      O           0.00000000     0.00000000     0.00000000
    196      3      O           0.00000000     0.00000000     0.00000000
    197      3      O           0.00000000     0.00000000     0.00000000
    198      3      O           0.00000000     0.00000000     0.00000000
    199      3      O           0.00000000     0.00000000     0.00000000
    200      3      O           0.00000000     0.00000000     0.00000000
    201      3      O           0.00000000     0.00000000     0.00000000
    202      3      O           0.00000000     0.00000000     0.00000000
    203      3      O           0.00000000     0.00000000     0.00000000
    204      3      O           0.00000000     0.00000000     0.00000000
    205      3      O           0.00000000     0.00000000     0.00000000
    206      3      O           0.00000000     0.00000000     0.00000000
    207      3      O           0.00000000     0.00000000     0.00000000
    208      3      O           0.00000000     0.00000000     0.00000000
    209      3      O           0.00000000     0.00000000     0.00000000
    210      3      O           0.00000000     0.00000000     0.00000000
    211      3      O           0.00000000     0.00000000     0.00000000
    212      3      O           0.00000000     0.00000000     0.00000000
    213      3      O           0.00000000     0.00000000     0.00000000
    214      3      O           0.00000000     0.00000000     0.00000000
    215      3      O           0.00000000     0.00000000     0.00000000
    216      3      O           0.00000000     0.00000000     0.00000000
    217      3      O           0.00000000     0.00000000     0.00000000
    218      3      O           0.00000000     0.00000000     0.00000000
    219      3      O           0.00000000     0.00000000     0.00000000
    220      3      O           0.00000000     0.00000000     0.00000000
    221      3      O           0.00000000     0.00000000     0.00000000
    222      3      O           0.00000000     0.00000000     0.00000000
    223      3      O           0.00000000     0.00000000     0.00000000
    224      3      O           0.00000000     0.00000000     0.00000000
    225      3      O           0.00000000     0.00000000     0.00000000
    226      3      O           0.00000000     0.00000000     0.00000000
    227      3      O           0.00000000     0.00000000     0.00000000
    228      3      O           0.00000000     0.00000000     0.00000000
    229      3      O           0.00000000     0.00000000     0.00000000
    230      3      O           0.00000000     0.00000000     0.00000000
    231      3      O           0.00000000     0.00000000     0.00000000
    232      3      O           0.00000000     0.00000000     0.00000000
    233      3      O           0.00000000     0.00000000     0.00000000
    234      3      O           0.00000000     0.00000000     0.00000000
    235      3      O           0.00000000     0.00000000     0.00000000
    236      3      O           0.00000000     0.00000000     0.00000000
    237      3      O           0.00000000     0.00000000     0.00000000
    238      3      O           0.00000000     0.00000000     0.00000000
    239      3      O           0.00000000     0.00000000     0.00000000
    240      3      O           0.00000000     0.00000000     0.00000000
    241      3      O           0.00000000     0.00000000     0.00000000
    242      3      O           0.00000000     0.00000000     0.00000000
    243      3      O           0.00000000     0.00000000     0.00000000
    244      3      O           0.00000000     0.00000000     0.00000000
    245      3      O           0.00000000     0.00000000     0.00000000
    246      3      O           0.00000000     0.00000000     0.00000000
    247      3      O           0.00000000     0.00000000     0.00000000
    248      3      O           0.00000000     0.00000000     0.00000000
    249      3      O           0.00000000     0.00000000     0.00000000
    250      3      O           0.00000000     0.00000000     0.00000000
    251      3      O           0.00000000     0.00000000     0.00000000
    252      3      O           0.00000000     0.00000000     0.00000000
    253      3      O           0.00000000     0.00000000     0.00000000
    254      3      O           0.00000000     0.00000000     0.00000000
    255      3      O           0.00000000     0.00000000     0.00000000
    256      3      O           0.00000000     0.00000000     0.00000000
    257      3      O           0.00000000     0.00000000     0.00000000
    258      3      O           0.00000000     0.00000000     0.00000000
    259      3      O           0.00000000     0.00000000     0.00000000
    260      3      O           0.00000000     0.00000000     0.00000000
    261      3      O           0.00000000     0.00000000     0.00000000
    262      3      O           0.00000000     0.00000000     0.00000000
    263      3      O           0.00000000     0.00000000     0.00000000
    264      3      O           0.00000000     0.00000000     0.00000000
    265      3      O           0.00000000     0.00000000     0.00000000
    266      3      O           0.00000000     0.00000000     0.00000000
    267      3      O           0.00000000     0.00000000     0.00000000
    268      3      O           0.00000000     0.00000000     0.00000000
    269      3      O           0.00000000     0.00000000     0.00000000
    270      3      O           0.00000000     0.00000000     0.00000000
    271      3      O           0.00000000     0.00000000     0.00000000
    272      3      O           0.00000000     0.00000000     0.00000000
    273      3      O           0.00000000     0.00000000     0.00000000
    274      3      O           0.00000000     0.00000000     0.00000000
    275      3      O           0.00000000     0.00000000     0.00000000
    276      3      O           0.00000000     0.00000000     0.00000000
    277      3      O           0.00000000     0.00000000     0.00000000
    278      3      O           0.00000000     0.00000000     0.00000000
    279      3      O           0.00000000     0.00000000     0.00000000
    280      3      O           0.00000000     0.00000000     0.00000000
    281      3      O           0.00000000     0.00000000     0.00000000
    282      3      O           0.00000000     0.00000000     0.00000000
    283      3      O           0.00000000     0.00000000     0.00000000
    284      3      O           0.00000000     0.00000000     0.00000000
    285      3      O           0.00000000     0.00000000     0.00000000
    286      3      O           0.00000000     0.00000000     0.00000000
    287      3      O           0.00000000     0.00000000     0.00000000
    288      3      O           0.00000000     0.00000000     0.00000000
    289      3      O           0.00000000     0.00000000     0.00000000
    290      3      O           0.00000000     0.00000000     0.00000000
    291      3      O           0.00000000     0.00000000     0.00000000
    292      3      O           0.00000000     0.00000000     0.00000000
    293      3      O           0.00000000     0.00000000     0.00000000
    294      3      O           0.00000000     0.00000000     0.00000000
    295      3      O           0.00000000     0.00000000     0.00000000
    296      3      O           0.00000000     0.00000000     0.00000000
    297      3      O           0.00000000     0.00000000     0.00000000
    298      3      O           0.00000000     0.00000000     0.00000000
    299      3      O           0.00000000     0.00000000     0.00000000
    300      3      O           0.00000000     0.00000000     0.00000000
    301      3      O           0.00000000     0.00000000     0.00000000
    302      3      O           0.00000000     0.00000000     0.00000000
    303      3      O           0.00000000     0.00000000     0.00000000
    304      3      O           0.00000000     0.00000000     0.00000000
    305      3      O           0.00000000     0.00000000     0.00000000
    306      3      O           0.00000000     0.00000000     0.00000000
    307      3      O           0.00000000     0.00000000     0.00000000
    308      3      O           0.00000000     0.00000000     0.00000000
    309      3      O           0.00000000     0.00000000     0.00000000
    310      3      O           0.00000000     0.00000000     0.00000000
    311      3      O           0.00000000     0.00000000     0.00000000
    312      3      O           0.00000000     0.00000000     0.00000000
    313      3      O           0.00000000     0.00000000     0.00000000
    314      3      O           0.00000000     0.00000000     0.00000000
    315      3      O           0.00000000     0.00000000     0.00000000
    316      3      O           0.00000000     0.00000000     0.00000000
    317      3      O           0.00000000     0.00000000     0.00000000
    318      3      O           0.00000000     0.00000000     0.00000000
    319      3      O           0.00000000     0.00000000     0.00000000
    320      3      O           0.00000000     0.00000000     0.00000000
    321      3      O           0.00000000     0.00000000     0.00000000
    322      3      O           0.00000000     0.00000000     0.00000000
    323      3      O           0.00000000     0.00000000     0.00000000
    324      3      O           0.00000000     0.00000000     0.00000000
    325      3      O           0.00000000     0.00000000     0.00000000
    326      3      O           0.00000000     0.00000000     0.00000000
    327      3      O           0.00000000     0.00000000     0.00000000
    328      3      O           0.00000000     0.00000000     0.00000000
    329      3      O           0.00000000     0.00000000     0.00000000
    330      3      O           0.00000000     0.00000000     0.00000000
    331      3      O           0.00000000     0.00000000     0.00000000
    332      3      O           0.00000000     0.00000000     0.00000000
    333      3      O           0.00000000     0.00000000     0.00000000
    334      3      O           0.00000000     0.00000000     0.00000000
    335      3      O           0.00000000     0.00000000     0.00000000
    336      3      O           0.00000000     0.00000000     0.00000000
    337      3      O           0.00000000     0.00000000     0.00000000
    338      3      O           0.00000000     0.00000000     0.00000000
    339      3      O           0.00000000     0.00000000     0.00000000
    340      3      O           0.00000000     0.00000000     0.00000000
    341      3      O           0.00000000     0.00000000     0.00000000
    342      3      O           0.00000000     0.00000000     0.00000000
    343      3      O           0.00000000     0.00000000     0.00000000
    344      3      O           0.00000000     0.00000000     0.00000000
    345      3      O           0.00000000     0.00000000     0.00000000
    346      3      O           0.00000000     0.00000000     0.00000000
    347      3      O           0.00000000     0.00000000     0.00000000
    348      3      O           0.00000000     0.00000000     0.00000000
    349      3      O           0.00000000     0.00000000     0.00000000
    350      3      O           0.00000000     0.00000000     0.00000000
    351      3      O           0.00000000     0.00000000     0.00000000
    352      3      O           0.00000000     0.00000000     0.00000000
    353      3      O           0.00000000     0.00000000     0.00000000
    354      3      O           0.00000000     0.00000000     0.00000000
    355      3      O           0.00000000     0.00000000     0.00000000
    356      3      O           0.00000000     0.00000000     0.00000000
    357      3      O           0.00000000     0.00000000     0.00000000
    358      3      O           0.00000000     0.00000000     0.00000000
    359      3      O           0.00000000     0.00000000     0.00000000
    360      3      O           0.00000000     0.00000000     0.00000000
    361      3      O           0.00000000     0.00000000     0.00000000
    362      3      O           0.00000000     0.00000000     0.00000000
    363      3      O           0.00000000     0.00000000     0.00000000
    364      3      O           0.00000000     0.00000000     0.00000000
    365      3      O           0.00000000     0.00000000     0.00000000
    366      3      O           0.00000000     0.00000000     0.00000000
[...]
 flops  2010 x   288 x   657        4207906506240       0.0%    100.0%      0.0%
 flops   412 x   256 x   670        4401093427200       0.0%    100.0%      0.0%
 flops    13 x    32 x     5        4532254688000       0.0%    100.0%      0.0%
 flops     5 x    32 x    13        4532254688000       0.0%    100.0%      0.0%
 flops   416 x   256 x   128        4973093978112       0.0%    100.0%      0.0%
 flops   416 x   256 x   657        5229118881792       0.0%    100.0%      0.0%
 flops    13 x    13 x   160        5365810136960       0.0%    100.0%      0.0%
 flops  2005 x   256 x   160        5548351488000       0.0%    100.0%      0.0%
 flops  2007 x   256 x   657        5602168065024       0.0%    100.0%      0.0%
 flops  2010 x   256 x   657        5610542008320       0.0%    100.0%      0.0%
 flops   416 x   288 x   670        6665733734400       0.0%    100.0%      0.0%
 flops  2005 x   284 x   670        7035070216000       0.0%    100.0%      0.0%
 flops  2007 x   288 x   670        7141272076800       0.0%    100.0%      0.0%
 flops  2010 x   288 x   670        7151946624000       0.0%    100.0%      0.0%
 flops  2005 x   284 x   128        7386242918400       0.0%    100.0%      0.0%
 flops  2007 x   288 x   128        7497746104320       0.0%    100.0%      0.0%
 flops  2010 x   288 x   128        7508953497600       0.0%    100.0%      0.0%
 flops  2005 x   288 x   657        8394878154240       0.0%    100.0%      0.0%
 flops   416 x   256 x   670        8887644979200       0.0%    100.0%      0.0%
 flops  2007 x   256 x   670        9521696102400       0.0%    100.0%      0.0%
 flops  2010 x   256 x   670        9535928832000       0.0%    100.0%      0.0%
 flops  2007 x   256 x   128        9996994805760       0.0%    100.0%      0.0%
 flops  2010 x   256 x   128       10011937996800       0.0%    100.0%      0.0%
 flops  2005 x   256 x   657       11193170872320       0.0%    100.0%      0.0%
 flops  2005 x   288 x   670       14268311424000       0.0%    100.0%      0.0%
 flops  2005 x   288 x   128       14980549017600       0.0%    100.0%      0.0%
 flops  2005 x   256 x   670       19024415232000       0.0%    100.0%      0.0%
 flops    13 x    13 x   128       19316916493056       0.0%    100.0%      0.0%
 flops  2005 x   256 x   128       19974065356800       0.0%    100.0%      0.0%
 flops    13 x    32 x    13      103088103955200       0.0%    100.0%      0.0%
 flops inhomo. stacks              72765834945936     100.0%      0.0%      0.0%
 flops total                       577.627370E+12      12.6%     87.4%      0.0%
 flops max/rank                     25.630645E+12      12.6%     87.4%      0.0%
 matmuls inhomo. stacks                    215856     100.0%      0.0%      0.0%
 matmuls total                        12957655158       0.0%    100.0%      0.0%
 number of processed stacks              18307122       1.2%     98.8%      0.0%
 average stack size                                     1.0     716.2       0.0
 marketing flops                   972.038877E+12
 -------------------------------------------------------------------------------
 # multiplications                          11845
 max memory usage/rank             987.484160E+06
 # max total images/rank                        3
 # max 3D layers                                1
 # MPI messages exchanged                 5401320
 MPI messages size (bytes):
  total size                         9.332119E+12
  min size                           0.000000E+00
  max size                          11.111280E+06
  average size                       1.727748E+06
 MPI breakdown and total messages size (bytes):
             size <=      128               29256                        0
       128 < size <=     8192                   0                        0
      8192 < size <=    32768                1242                 40697856
     32768 < size <=   131072                 414                 16692480
    131072 < size <=  4194304             5149128            6955544286128
   4194304 < size <= 16777216              221280            2376279045520
  16777216 < size                               0                        0
 -------------------------------------------------------------------------------

 *** WARNING in dbcsr_mm.F:294 :: Using a non-square number of MPI ranks ***
 *** might lead to poor performance. Used ranks: 24 Suggested: 25 49     ***

 -------------------------------------------------------------------------------
 -                                                                             -
 -                      DBCSR MESSAGE PASSING PERFORMANCE                      -
 -                                                                             -
 -------------------------------------------------------------------------------
 ROUTINE             CALLS      AVE VOLUME [Bytes]
 MP_Bcast              160                     12.
 MP_Allreduce        59959                    117.
 MP_Alltoall         51936                 736333.
 MP_ISend           545300                 779974.
 MP_IRecv           536518                 785520.
 -------------------------------------------------------------------------------

 -------------------------------------------------------------------------------
 -                                                                             -
 -                                GRID STATISTICS                              -
 -                                                                             -
 -------------------------------------------------------------------------------
 LP    KERNEL             BACKEND                              COUNT     PERCENT
 4     collocate ortho    REF                              239437642      52.38%
 4     integrate ortho    REF                              119718821      26.19%
 3     collocate ortho    REF                               42806944       9.37%
 3     integrate ortho    REF                               21403472       4.68%
 7     integrate ortho    REF                               12693356       2.78%
 2     collocate ortho    REF                                9687330       2.12%
 2     integrate ortho    REF                                4843665       1.06%
 6     integrate ortho    REF                                2283846       0.50%
 5     collocate ortho    REF                                1474910       0.32%
 5     integrate ortho    REF                                1251403       0.27%
 0     collocate general  REF                                 697680       0.15%
 3     integrate general  REF                                 682176       0.15%
 8     integrate ortho    REF                                  78188       0.02%
 6     collocate ortho    REF                                  29880       0.01%
 9     integrate ortho    REF                                   1584       0.00%
 -------------------------------------------------------------------------------

 MEMORY| Estimated peak process memory [MiB]                                 942

 -------------------------------------------------------------------------------
 -                                                                             -
 -                         MESSAGE PASSING PERFORMANCE                         -
 -                                                                             -
 -------------------------------------------------------------------------------

 ROUTINE             CALLS      AVE VOLUME [Bytes]
 MP_Group                5
 MP_Bcast            35150                 240646.
 MP_Allreduce        93438                   1226.
 MP_Sync               687
 MP_Alltoall         14155               34021259.
 MP_SendRecv          4048                  16053.
 MP_ISendRecv        88941                 127093.
 MP_Wait            175485
 MP_ISend            77254                 804206.
 MP_IRecv            77254                 804374.
 MP_Recv              5854                1390818.
 -------------------------------------------------------------------------------


 -------------------------------------------------------------------------------
 -                                                                             -
 -                           R E F E R E N C E S                               -
 -                                                                             -
 -------------------------------------------------------------------------------
 
 CP2K version 9.1, the CP2K developers group (2021).
 CP2K is freely available from https://www.cp2k.org/ .

 Kuehne,Thomas D.; Iannuzzi,Marcella; Del Ben,Mauro;
 Rybkin,Vladimir V.; Seewald,Patrick; Stein,Frederick; Laino,Teodoro;
 Khaliullin,Rustam Z.; Schuett,Ole; Schiffmann,Florian; Golze,Dorothea;
 Wilhelm,Jan; Chulkov,Sergey; Bani-Hashemian,Mohammad Hossein;
 Weber,Valery; Borstnik,Urban; Taillefumier,Mathieu;
 Jakobovits,Alice Shoshana; Lazzaro,Alfio; Pabst,Hans; Mueller,Tiziano;
 Schade,Robert; Guidon,Manuel; Andermatt,Samuel; Holmberg,Nico;
 Schenter,Gregory K.; Hehn,Anna; Bussy,Augustin; Belleflamme,Fabian;
 Tabacchi,Gloria; Gloess,Andreas; Lass,Michael; Bethune,Iain;
 Mundy,Christopher J.; Plessl,Christian; Watkins,Matt;
 VandeVondele,Joost; Krack,Matthias; Hutter,Juerg. 
 The Journal of Chemical Physics, 152 (19), (2020). 
 CP2K: An electronic structure and molecular dynamics software package -
 Quickstep: Efficient and accurate electronic structure calculations.
 https://doi.org/10.1063/5.0007045

 Goerigk, Lars; Hansen, Andreas; Bauer, Christoph; Ehrlich, Stephan;
 Najibi, Asim; Grimme, Stefan. , 19 (48), (2017). 
 A look at the density functional theory zoo with the advanced GMTKN55 database
 for general main group thermochemistry, kinetics and noncovalent interactions.
 https://doi.org/10.1039/C7CP04913G

 Schuett, Ole; Messmer, Peter; Hutter, Juerg; VandeVondele, Joost. 
 Electronic Structure Calculations on Graphics Processing Units, John
 Wiley & Sons, Ltd, 173-190 (2016). 
 GPU-Accelerated Sparse Matrix-Matrix Multiplication for
 Linear Scaling Density Functional Theory.
 https://doi.org/10.1002/9781118670712.ch8

 Heinecke, A; Henry, G; Hutchinson, M; Pabst, H. 
 Proceedings of Intl. Supercomputing Conference, 981-991 (2016). 
 LIBXSMM: Accelerating Small Matrix Multiplications
 by Runtime Code Generation.
 https://doi.org/10.1109/SC.2016.83

 Borstnik, U; VandeVondele, J; Weber, V; Hutter, J. 
 PARALLEL COMPUTING, 40 (5-6), 47-58 (2014). 
 Sparse matrix multiplication: The distributed block-compressed sparse
 row library.
 https://doi.org/10.1016/j.parco.2014.03.012

 Hutter, J; Iannuzzi, M; Schiffmann, F; VandeVondele, J. 
 WIREs Comput Mol Sci., 4 (1), 15-25 (2014). 
 CP2K: atomistic simulations of condensed matter systems.
 https://doi.org/10.1002/wcms.1159

 Grimme, S; Ehrlich, S; Goerigk, L. 
 JOURNAL OF COMPUTATIONAL CHEMISTRY, 32, 1456 (2011). 
 Effect of the damping function in dispersion corrected density functional theory.
 https://doi.org/10.1002/jcc.21759

 Grimme, S; Antony, J; Ehrlich, S; Krieg, H. 
 JOURNAL OF CHEMICAL PHYSICS, 132 (15), 154104 (2010). 
 A consistent and accurate ab initio parametrization of density
 functional dispersion correction (DFT-D) for the 94 elements H-Pu.
 https://doi.org/10.1063/1.3382344

 VandeVondele, J; Hutter, J. 
 JOURNAL OF CHEMICAL PHYSICS, 127 (11), 114105 (2007). 
 Gaussian basis sets for accurate calculations on molecular systems in
 gas and condensed phases.
 https://doi.org/10.1063/1.2770708

 Kuhne, TD; Krack, M; Mohamed, FR; Parrinello, M. 
 PHYSICAL REVIEW LETTERS, 98 (6), 066401 (2007). 
 Efficient and accurate Car-Parrinello-like approach to
 Born-Oppenheimer molecular dynamics.
 https://doi.org/10.1103/PhysRevLett.98.066401

 Krack, M. 
 THEORETICAL CHEMISTRY ACCOUNTS, 114 (1-3), 145-152 (2005). 
 Pseudopotentials for H to Kr optimized for gradient-corrected
 exchange-correlation functionals.
 https://doi.org/10.1007/s00214-005-0655-y

 VandeVondele, J; Krack, M; Mohamed, F; Parrinello, M; Chassaing, T;
 Hutter, J. COMPUTER PHYSICS COMMUNICATIONS, 167 (2), 103-128 (2005). 
 QUICKSTEP: Fast and accurate density functional calculations using a
 mixed Gaussian and plane waves approach.
 https://doi.org/10.1016/j.cpc.2004.12.014

 Frigo, M; Johnson, SG. 
 PROCEEDINGS OF THE IEEE, 93 (2), 216-231 (2005). 
 The design and implementation of FFTW3.
 https://doi.org/10.1109/JPROC.2004.840301

 Kolafa, J. 
 JOURNAL OF COMPUTATIONAL CHEMISTRY, 25 (3), 335-342 (2004). 
 Time-reversible always stable predictor-corrector method for
 molecular dynamics of polarizable molecules.
 https://doi.org/10.1002/jcc.10385

 VandeVondele, J; Hutter, J. 
 JOURNAL OF CHEMICAL PHYSICS, 118 (10), 4365-4369 (2003). 
 An efficient orbital transformation method for electronic structure
 calculations.
 https://doi.org/10.1063/1.1543154

 Hartwigsen, C; Goedecker, S; Hutter, J. 
 PHYSICAL REVIEW B, 58 (7), 3641-3662 (1998). 
 Relativistic separable dual-space Gaussian pseudopotentials from H to Rn.
 https://doi.org/10.1103/PhysRevB.58.3641

 Lippert, G; Hutter, J; Parrinello, M. 
 MOLECULAR PHYSICS, 92 (3), 477-487 (1997). 
 A hybrid Gaussian and plane wave density functional scheme.
 https://doi.org/10.1080/002689797170220

 Perdew, JP; Burke, K; Ernzerhof, M. 
 PHYSICAL REVIEW LETTERS, 77 (18), 3865-3868 (1996). 
 Generalized gradient approximation made simple.
 https://doi.org/10.1103/PhysRevLett.77.3865

 Goedecker, S; Teter, M; Hutter, J. 
 PHYSICAL REVIEW B, 54 (3), 1703-1710 (1996). 
 Separable dual-space Gaussian pseudopotentials.
 https://doi.org/10.1103/PhysRevB.54.1703


 -------------------------------------------------------------------------------
 -                                                                             -
 -                                T I M I N G                                  -
 -                                                                             -
 -------------------------------------------------------------------------------
 SUBROUTINE                       CALLS  ASD         SELF TIME        TOTAL TIME
                                MAXIMUM       AVERAGE  MAXIMUM  AVERAGE  MAXIMUM
 CP2K                                 1  1.0    0.030    0.034 8555.871 8555.923
 cp_geo_opt                           1  2.0    0.001    0.002 8554.408 8554.459
 geoopt_bfgs                          1  3.0    0.244    0.275 8554.407 8554.457
 cp_eval_at                          45  4.0    0.010    0.074 8523.549 8523.610
 qs_forces                           44  5.0    0.014    0.015 8460.788 8460.840
 qs_energies                         45  6.0    0.005    0.007 8015.260 8015.518
 scf_env_do_scf                      45  7.0    0.003    0.005 7707.115 7707.191
 scf_env_do_scf_inner_loop          785  8.0    0.018    0.058 6079.546 6089.184
 rebuild_ks_matrix                  829  9.8    0.004    0.005 3055.080 3057.646
 qs_ks_build_kohn_sham_matrix       829 10.8    0.119    0.130 3055.076 3057.642
 qs_ks_update_qs_env                831  9.0    0.007    0.007 2657.221 2659.550
 dbcsr_multiply_generic           11845 13.7    0.896    0.959 2099.400 2113.774
 qs_scf_new_mos                     785  9.0    0.005    0.007 2001.627 2007.927
 qs_scf_loop_do_ot                  785 10.0    0.006    0.008 2001.622 2007.922
 ot_scf_mini                        785 11.0    0.035    0.044 1865.137 1868.531
 multiply_cannon                  11845 14.7    1.257    1.452 1774.036 1815.133
 multiply_cannon_loop             11845 15.7    1.891    2.148 1710.118 1748.758
 qs_rho_update_rho                  830  9.0    0.004    0.005 1742.818 1746.931
 calculate_rho_elec                 830 10.0    3.617    3.702 1742.814 1746.927
 init_scf_loop                       46  8.0    0.002    0.003 1616.795 1616.852
 sum_up_and_integrate               459 11.7    2.223    2.275 1519.991 1520.574
 integrate_v_rspace                 459 12.7    0.019    0.021 1517.767 1518.377
 multiply_cannon_multrec         142140 16.7 1371.580 1456.367 1371.761 1456.534
 prepare_preconditioner              46  9.0    0.000    0.001 1354.498 1354.929
 make_preconditioner                 46 10.0    0.001    0.002 1309.189 1309.546
 grid_integrate_task_list           459 13.7 1297.527 1305.861 1297.527 1305.861
 grid_collocate_task_list           830 11.0 1264.837 1293.202 1264.837 1293.202
 make_full_all                       46 11.0    0.080    0.111 1269.845 1270.791
 qs_vxc_create                      829 11.8    0.017    0.020 1259.636 1260.270
 pw_transfer                      13760 13.3    1.106    1.203 1180.097 1193.964
 fft_wrap_pw1pw2                  12102 14.4    0.167    0.185 1162.256 1176.109
 fft_wrap_pw1pw2_180               6946 15.6   98.587   99.621 1121.708 1137.026
 ot_mini                            785 12.0    0.006    0.008 1112.691 1115.302
 cp_fm_syevd                        682 13.7    0.013    0.019  935.417  936.262
 cp_fm_syevd_base                   682 14.7  929.319  929.441  929.319  929.441
 xc_rho_set_and_dset_create         829 13.8    6.774    6.838  887.550  892.739
 fft3d_ps                         12102 16.4  490.230  500.834  873.011  887.694
 xc_vxc_pw_create                   459 12.7   31.067   33.936  861.924  862.544
 apply_preconditioner_dbcsr         461 14.0    0.001    0.002  641.124  645.994
 apply_all                          461 15.0    0.772    0.821  641.122  645.992
 ot_new_cg_direction                415 13.0    0.009    0.012  586.134  586.154
 qs_ot_get_derivative               415 13.0    0.005    0.007  522.443  525.220
 mp_waitall_1                    761551 17.6  417.421  483.099  417.421  483.099
 density_rs2pw                      830 11.0    0.061    0.072  457.907  477.090
 xc_functional_eval                 829 14.8    0.012    0.016  405.990  410.854
 pbe_lda_eval                       829 15.8  405.978  410.843  405.978  410.843
 qs_ks_update_qs_env_forces          44  6.0    0.000    0.000  400.911  401.132
 xc_exc_calc                        370 13.0    1.564    1.567  397.695  397.717
 multiply_cannon_metrocomm3      142140 16.7    0.482    0.583  316.388  390.065
 qs_ot_get_p                        831 11.9    0.006    0.008  310.863  316.407
 rs_pw_transfer                    6534 13.0    0.095    0.107  263.519  286.604
 x_to_yz                           6071 18.1  183.822  184.900  247.608  251.208
 qs_ot_get_orbitals                 785 12.0    0.006    0.007  243.071  245.554
 make_m2s                         23690 14.7    0.880    0.982  234.912  238.037
 init_scf_run                        45  7.0    0.001    0.003  233.427  233.434
 scf_env_initial_rho_setup           45  8.0    0.001    0.002  233.425  233.433
 wfi_extrapolate                     45  9.0    0.006    0.008  228.953  228.957
 cp_gemm                            740 10.2    0.002    0.003  219.693  221.634
 cp_gemm_fm_gemm                    740 11.2    0.003    0.003  219.690  221.632
 cp_fm_gemm                         740 12.2  219.688  221.629  219.688  221.629
 qs_ot_get_derivative_diag          249 14.0    0.008    0.010  211.000  212.764
 potential_pw2rs                    459 13.7    0.164    0.232  195.375  195.937
 cp_fm_cholesky_reduce               46 12.0  175.523  175.857  175.523  175.857
 -------------------------------------------------------------------------------

 The number of warnings for this run is : 2
 
 -------------------------------------------------------------------------------
  **** **** ******  **  PROGRAM ENDED AT                 2022-09-04 20:11:15.933
 ***** ** ***  *** **   PROGRAM RAN ON             node1052.palmetto.clemson.edu
 **    ****   ******    PROGRAM RAN BY                                   xiutinc
 ***** **    ** ** **   PROGRAM PROCESS ID                               3730358
  **** **  *******  **  PROGRAM STOPPED IN    /scratch1/xiutinc/CP2K-96996.pbs02
