 DBCSR| CPU Multiplication driver                                           XSMM
 DBCSR| Multrec recursion limit                                              512
 DBCSR| Multiplication stack size                                           1000
 DBCSR| Maximum elements for images                                    UNLIMITED
 DBCSR| Multiplicative factor virtual images                                   1
 DBCSR| Use multiplication densification                                       T
 DBCSR| Multiplication size stacks                                             3
 DBCSR| Use memory pool for CPU allocation                                     F
 DBCSR| Number of 3D layers                                               SINGLE
 DBCSR| Use MPI memory allocation                                              F
 DBCSR| Use RMA algorithm                                                      F
 DBCSR| Use Communication thread                                               T
 DBCSR| Communication thread load                                             87
 DBCSR| MPI: My node id                                                        0
 DBCSR| MPI: Number of nodes                                                  24
 DBCSR| OMP: Current number of threads                                         1
 DBCSR| OMP: Max number of threads                                             1
 DBCSR| Split modifier for TAS multiplication algorithm                  1.0E+00


  **** **** ******  **  PROGRAM STARTED AT               2022-09-04 17:48:52.866
 ***** ** ***  *** **   PROGRAM STARTED ON         node1120.palmetto.clemson.edu
 **    ****   ******    PROGRAM STARTED BY                               xiutinc
 ***** **    ** ** **   PROGRAM PROCESS ID                               3888545
  **** **  *******  **  PROGRAM STARTED IN    /scratch1/xiutinc/CP2K-97002.pbs02

 CP2K| version string:                                          CP2K version 9.1
 CP2K| source code revision number:                                  git:d8d7100
 CP2K| cp2kflags: omp libint fftw3 libxc parallel mpi3 scalapack xsmm           
 CP2K| is freely available from                            https://www.cp2k.org/
 CP2K| Program compiled at                          Mon Aug  8 12:17:03 EDT 2022
 CP2K| Program compiled on                         node0352.palmetto.clemson.edu
 CP2K| Program compiled for                           linux-rocky8-ivybridge-gcc
 CP2K| Data directory path    /software/spackages/linux-rocky8-ivybridge/gcc-9.5
 CP2K| Input file name                                             intE06_aq.inp

 GLOBAL| Force Environment number                                              1
 GLOBAL| Basis set file name                                          BASIS_file
 GLOBAL| Potential file name                                     POTENTIALS_file
 GLOBAL| MM Potential file name                                     MM_POTENTIAL
 GLOBAL| Coordinate file name                                    ./intE06_aq.xyz
 GLOBAL| Method name                                                        CP2K
 GLOBAL| Project name                                                  intE06_aq
 GLOBAL| Run type                                                        GEO_OPT
 GLOBAL| FFT library                                                       FFTW3
 GLOBAL| Diagonalization library                                       ScaLAPACK
 GLOBAL| Orthonormality check for eigenvectors                          DISABLED
 GLOBAL| Matrix multiplication library                                 ScaLAPACK
 GLOBAL| All-to-all communication in single precision                          F
 GLOBAL| FFTs using library dependent lengths                                  F
 GLOBAL| Grid backend                                                       AUTO
 GLOBAL| Global print level                                                  LOW
 GLOBAL| MPI I/O enabled                                                       T
 GLOBAL| Total number of message passing processes                            24
 GLOBAL| Number of threads for this process                                    1
 GLOBAL| This output is from process                                           0
 GLOBAL| Stack size for threads created by OpenMP (OMP_STACKSIZE)        default
 GLOBAL| CPU model name                Intel(R) Xeon(R) CPU E5-2680 v3 @ 2.50GHz
 GLOBAL| CPUID                                                              1002
 GLOBAL| Compiled for CPUID                                                 1001

 *** HINT in environment.F:869 :: The compiler target flags (x86_avx) used ***
 *** to build this binary cannot exploit all extensions of this CPU model  ***
 *** (x86_avx2). Consider compiler target flags as part of FCFLAGS and     ***
 *** CFLAGS (ARCH file).                                                   ***


 MEMORY| system memory details [Kb]
 MEMORY|                        rank 0           min           max       average
 MEMORY| MemTotal            131294764     131294764     131294764     131294764
 MEMORY| MemFree             123381452     123381348     123381452     123381356
 MEMORY| Buffers                  3476          3476          3476          3476
 MEMORY| Cached                2487596       2487596       2487596       2487596
 MEMORY| Slab                   631368        631368        631416        631412
 MEMORY| SReclaimable           255640        255640        255640        255640
 MEMORY| MemLikelyFree       126128164     126128060     126128164     126128068


 *******************************************************************************
 *******************************************************************************
 **                                                                           **
 **     #####                         ##              ##                      **
 **    ##   ##            ##          ##              ##                      **
 **   ##     ##                       ##            ######                    **
 **   ##     ##  ##   ##  ##   #####  ##  ##   ####   ##    #####    #####    **
 **   ##     ##  ##   ##  ##  ##      ## ##   ##      ##   ##   ##  ##   ##   **
 **   ##  ## ##  ##   ##  ##  ##      ####     ###    ##   ######   ######    **
 **    ##  ###   ##   ##  ##  ##      ## ##      ##   ##   ##       ##        **
 **     #######   #####   ##   #####  ##  ##  ####    ##    #####   ##        **
 **           ##                                                    ##        **
 **                                                                           **
 **                                                ... make the atoms dance   **
 **                                                                           **
 **            Copyright (C) by CP2K developers group (2000-2021)             **
 **                      J. Chem. Phys. 152, 194103 (2020)                    **
 **                                                                           **
 *******************************************************************************


 TOTAL NUMBERS AND MAXIMUM NUMBERS

  Total number of            - Atomic kinds:                                   5
                             - Atoms:                                        661
                             - Shell sets:                                   661
                             - Shells:                                      3192
                             - Primitive Cartesian functions:               3116
                             - Cartesian basis functions:                   8749
                             - Spherical basis functions:                   8142

  Maximum angular momentum of- Orbital basis functions:                        3
                             - Local part of the GTH pseudopotential:          2
                             - Non-local part of the GTH pseudopotential:      3


 SCF PARAMETERS         Density guess:                                   RESTART
                        --------------------------------------------------------
                        max_scf:                                             500
                        max_scf_history:                                       0
                        max_diis:                                              4
                        --------------------------------------------------------
                        eps_scf:                                        1.00E-06
                        eps_scf_history:                                0.00E+00
                        eps_diis:                                       1.00E-01
                        eps_eigval:                                     1.00E-05
                        --------------------------------------------------------
                        level_shift [a.u.]:                                 0.00
                        --------------------------------------------------------
                        Outer loop SCF in use 
                        No variables optimised in outer loop
                        eps_scf                                         1.00E-06
                        max_scf                                               50
                        No outer loop optimization
                        step_size                                       5.00E-01

 BFGS| Use rational function optimization for step estimation:                NO
 BFGS| Use model Hessian for initial guess:                                  YES
 BFGS| Restart Hessian:                                                       NO
 BFGS| Trust radius:                                                       0.472

 *******************************************************************************
 ***                     STARTING GEOMETRY OPTIMIZATION                      ***
 ***                                   BFGS                                  ***
 *******************************************************************************

 Number of electrons:                                                       3296
 Number of occupied orbitals:                                               1648
 Number of molecular orbitals:                                              1648

 Number of orbital functions:                                               8142
 Number of independent orbital functions:                                   8142

 Extrapolation method: initial_guess

 *** WARNING in qs_initial_guess.F:309 :: User requested to restart the   ***
 *** wavefunction from the file named: intE06_aq-RESTART.wfn. This file   ***
 *** does not exist. Please check the existence of the file or change     ***
 *** properly the value of the keyword WFN_RESTART_FILE_NAME. Calculation ***
 *** continues using ATOMIC GUESS.                                        ***



 SCF WAVEFUNCTION OPTIMIZATION

  ----------------------------------- OT ---------------------------------------
  Minimizer      : CG                  : conjugate gradient
  Preconditioner : FULL_ALL            : diagonalization, state selective
  Precond_solver : DEFAULT
  Line search    : 2PNT                : 2 energies, one gradient
  stepsize       :    0.15000000                  energy_gap     :    0.00100000
  eps_taylor     :   0.10000E-15                  max_taylor     :             4
  ----------------------------------- OT ---------------------------------------

  Step     Update method      Time    Convergence         Total energy    Change
  ------------------------------------------------------------------------------
     1 OT CG       0.15E+00   40.9     0.01631301     -7214.1158869813 -7.21E+03
     2 OT LS       0.64E-01    4.6                    -7124.6936594630
     3 OT CG       0.64E-01   11.4     0.07728471     -7119.0019856634  9.51E+01
     4 OT LS       0.29E-01    4.6                    -6645.3414856643
     5 OT CG       0.29E-01   13.8     0.12947329     -6747.7156522406  3.71E+02
     6 OT LS       0.15E-01    4.7                    -6922.8990904507
     7 OT CG       0.15E-01   11.4     0.05540248     -7084.4496894982 -3.37E+02
     8 OT LS       0.91E-02    4.6                    -7180.3303020770
     9 OT CG       0.91E-02   11.4     0.01582229     -7204.5802804780 -1.20E+02
    10 OT LS       0.24E-01    4.6                    -7227.4409368112
    11 OT CG       0.24E-01   11.4     0.01697236     -7239.6932571022 -3.51E+01
    12 OT LS       0.27E-01    4.6                    -7286.3305607460
    13 OT CG       0.27E-01   11.4     0.01066574     -7289.0180115691 -4.93E+01
    14 OT LS       0.29E-01    4.6                    -7311.3350203977
    15 OT CG       0.29E-01   11.4     0.01026541     -7311.6340433736 -2.26E+01
    16 OT LS       0.18E-01    4.6                    -7321.0807433115
    17 OT CG       0.18E-01   11.4     0.00915785     -7327.0781269811 -1.54E+01
    18 OT LS       0.40E-01    4.6                    -7343.0498889960
    19 OT CG       0.40E-01   11.4     0.01429617     -7345.2276552888 -1.81E+01
    20 OT LS       0.13E-01    4.6                    -7299.5397173230
    21 OT CG       0.13E-01   11.5     0.00857215     -7356.2104999556 -1.10E+01
    22 OT LS       0.18E-01    4.6                    -7364.1801525781
    23 OT CG       0.18E-01   11.4     0.00471167     -7365.2385894791 -9.03E+00
    24 OT LS       0.58E-01    4.6                    -7369.9958561829
    25 OT CG       0.58E-01   11.4     0.00674378     -7372.2931170374 -7.05E+00
    26 OT LS       0.89E-02    4.6                    -7338.4003838930
    27 OT CG       0.89E-02   11.4     0.00737741     -7373.6874357331 -1.39E+00
    28 OT LS       0.14E-01    4.6                    -7378.1392056894
    29 OT CG       0.14E-01   11.4     0.00268745     -7378.9587255072 -5.27E+00
    30 OT LS       0.55E-01    4.6                    -7380.2589794824
    31 OT CG       0.55E-01   13.0     0.00212952     -7382.8188255827 -3.86E+00
    32 OT LS       0.10E+00    4.7                    -7385.7773530916
    33 OT CG       0.10E+00   11.9     0.00348708     -7386.8943949922 -4.08E+00
    34 OT LS       0.29E-01    5.7                    -7370.5185979504
    35 OT CG       0.29E-01   11.6     0.00261618     -7390.2800365907 -3.39E+00
    36 OT LS       0.69E-01    4.6                    -7392.6248854741
    37 OT CG       0.69E-01   11.4     0.00267484     -7393.8262542752 -3.55E+00
    38 OT LS       0.61E-01    4.6                    -7396.6474826178
    39 OT CG       0.61E-01   11.4     0.00258256     -7396.6564078377 -2.83E+00
    40 OT LS       0.41E-01    4.6                    -7398.1449927000
    41 OT CG       0.41E-01   11.4     0.00249509     -7398.6613362416 -2.00E+00
    42 OT LS       0.78E-01    4.6                    -7401.1908708273
    43 OT CG       0.78E-01   11.4     0.00237666     -7401.9414867384 -3.28E+00
    44 OT LS       0.58E-01    4.6                    -7403.8985083272
    45 OT CG       0.58E-01   11.4     0.00235351     -7404.0509492552 -2.11E+00
    46 OT LS       0.55E-01    4.6                    -7406.1416893788
    47 OT CG       0.55E-01   11.4     0.00264088     -7406.1611530785 -2.11E+00
    48 OT LS       0.49E-01    4.6                    -7408.2987726243
    49 OT CG       0.49E-01   11.4     0.00251710     -7408.3237024313 -2.16E+00
    50 OT LS       0.39E-01    4.6                    -7409.8387065871
    51 OT CG       0.39E-01   11.5     0.00190625     -7409.8997907095 -1.58E+00
    52 OT LS       0.76E-01    4.6                    -7411.3525980778
    53 OT CG       0.76E-01   11.4     0.00236072     -7411.6726108175 -1.77E+00
    54 OT LS       0.46E-01    4.6                    -7412.5046050188
    55 OT CG       0.46E-01   11.4     0.00233623     -7413.1031484338 -1.43E+00
    56 OT LS       0.41E-01    4.6                    -7414.5662096157
    57 OT CG       0.41E-01   11.4     0.00163975     -7414.5675844670 -1.46E+00
    58 OT LS       0.70E-01    4.6                    -7415.6590422404
    59 OT CG       0.70E-01   11.4     0.00151468     -7415.8415392000 -1.27E+00
    60 OT LS       0.79E-01    4.6                    -7416.9206321960
    61 OT CG       0.79E-01   11.4     0.00176961     -7416.9389649132 -1.10E+00
    62 OT LS       0.65E-01    4.6                    -7418.2392055860
    63 OT CG       0.65E-01   11.4     0.00162575     -7418.2780060413 -1.34E+00
    64 OT LS       0.73E-01    4.6                    -7419.5967571167
    65 OT CG       0.73E-01   11.4     0.00164575     -7419.5989731900 -1.32E+00
    66 OT LS       0.72E-01    4.6                    -7420.8145112068
    67 OT CG       0.72E-01   11.4     0.00175144     -7420.8143919699 -1.22E+00
    68 OT LS       0.62E-01    4.6                    -7422.0770154026
    69 OT CG       0.62E-01   11.5     0.00152827     -7422.0894151646 -1.28E+00
    70 OT LS       0.81E-01    4.6                    -7423.3276665160
    71 OT CG       0.81E-01   11.4     0.00147501     -7423.3736657908 -1.28E+00
    72 OT LS       0.78E-01    4.6                    -7424.4356119308
    73 OT CG       0.78E-01   11.4     0.00156465     -7424.4359370276 -1.06E+00
    74 OT LS       0.68E-01    4.6                    -7425.5484692728
    75 OT CG       0.68E-01   11.4     0.00133225     -7425.5611286704 -1.13E+00
    76 OT LS       0.75E-01    4.6                    -7426.4641472459
    77 OT CG       0.75E-01   11.4     0.00126293     -7426.4653434284 -9.04E-01
    78 OT LS       0.79E-01    4.6                    -7427.2724533690
    79 OT CG       0.79E-01   12.9     0.00135163     -7427.2746234777 -8.09E-01
    80 OT LS       0.72E-01    4.6                    -7428.1497414991
    81 OT CG       0.72E-01   11.6     0.00117338     -7428.1515638443 -8.77E-01
    82 OT LS       0.83E-01    4.6                    -7428.9293431950
    83 OT CG       0.83E-01   11.4     0.00118536     -7428.9381205407 -7.87E-01
    84 OT LS       0.73E-01    4.6                    -7429.5901867887
    85 OT CG       0.73E-01   11.4     0.00120762     -7429.6063184778 -6.68E-01
    86 OT LS       0.79E-01    4.6                    -7430.3709477977
    87 OT CG       0.79E-01   11.4     0.00108467     -7430.3794096758 -7.73E-01
    88 OT LS       0.79E-01    4.6                    -7431.0235021019
    89 OT CG       0.79E-01   11.4     0.00107492     -7431.0235438507 -6.44E-01
    90 OT LS       0.75E-01    4.6                    -7431.5907829189
    91 OT CG       0.75E-01   11.4     0.00108996     -7431.5939594963 -5.70E-01
    92 OT LS       0.83E-01    4.6                    -7432.2416559764
    93 OT CG       0.83E-01   11.4     0.00103622     -7432.2512343097 -6.57E-01
    94 OT LS       0.77E-01    4.6                    -7432.8191825219
    95 OT CG       0.77E-01   11.4     0.00097036     -7432.8223130860 -5.71E-01
    96 OT LS       0.82E-01    4.7                    -7433.3361704394
    97 OT CG       0.82E-01   11.4     0.00099634     -7433.3363043839 -5.14E-01
    98 OT LS       0.77E-01    4.6                    -7433.8379737829
    99 OT CG       0.77E-01   11.4     0.00099979     -7433.8391579165 -5.03E-01
   100 OT LS       0.75E-01    4.6                    -7434.3451905879
   101 OT CG       0.75E-01   11.4     0.00086724     -7434.3450441260 -5.06E-01
   102 OT LS       0.86E-01    4.6                    -7434.7807006013
   103 OT CG       0.86E-01   11.4     0.00088196     -7434.7864771277 -4.41E-01
   104 OT LS       0.78E-01    4.6                    -7435.1811955363
   105 OT CG       0.78E-01   13.3     0.00089721     -7435.1869611440 -4.00E-01
   106 OT LS       0.82E-01    4.6                    -7435.6254272863
   107 OT CG       0.82E-01   12.9     0.00085137     -7435.6272022173 -4.40E-01
   108 OT LS       0.77E-01    5.3                    -7436.0041825610
   109 OT CG       0.77E-01   11.5     0.00079828     -7436.0055773871 -3.78E-01
   110 OT LS       0.86E-01    4.6                    -7436.3695201924
   111 OT CG       0.86E-01   11.5     0.00080935     -7436.3724182502 -3.67E-01
   112 OT LS       0.81E-01    4.6                    -7436.7225691890
   113 OT CG       0.81E-01   11.4     0.00082607     -7436.7238700532 -3.51E-01
   114 OT LS       0.79E-01    4.6                    -7437.0850650004
   115 OT CG       0.79E-01   11.4     0.00075591     -7437.0851321820 -3.61E-01
   116 OT LS       0.82E-01    4.6                    -7437.4021156767
   117 OT CG       0.82E-01   11.4     0.00074197     -7437.4025495939 -3.17E-01
   118 OT LS       0.82E-01    4.6                    -7437.7062129850
   119 OT CG       0.82E-01   11.4     0.00073667     -7437.7062118727 -3.04E-01
   120 OT LS       0.84E-01    4.6                    -7438.0104693033
   121 OT CG       0.84E-01   11.4     0.00073610     -7438.0106259059 -3.04E-01
   122 OT LS       0.80E-01    4.6                    -7438.2996410129
   123 OT CG       0.80E-01   11.4     0.00068945     -7438.3004075694 -2.90E-01
   124 OT LS       0.84E-01    4.6                    -7438.5679860563
   125 OT CG       0.84E-01   11.4     0.00068283     -7438.5685595975 -2.68E-01
   126 OT LS       0.81E-01    4.6                    -7438.8224077985
   127 OT CG       0.81E-01   11.4     0.00066756     -7438.8226820363 -2.54E-01
   128 OT LS       0.85E-01    4.6                    -7439.0764178662
   129 OT CG       0.85E-01   11.4     0.00065784     -7439.0770100165 -2.54E-01
   130 OT LS       0.81E-01    4.6                    -7439.3114143728
   131 OT CG       0.81E-01   11.4     0.00062874     -7439.3120788861 -2.35E-01
   132 OT LS       0.85E-01    4.6                    -7439.5379527998
   133 OT CG       0.85E-01   11.4     0.00062127     -7439.5384776094 -2.26E-01
   134 OT LS       0.83E-01    4.6                    -7439.7517064348
   135 OT CG       0.83E-01   11.4     0.00061283     -7439.7519522504 -2.13E-01
   136 OT LS       0.85E-01    4.6                    -7439.9648520938
   137 OT CG       0.85E-01   11.4     0.00059757     -7439.9650100533 -2.13E-01
   138 OT LS       0.82E-01    4.6                    -7440.1614047453
   139 OT CG       0.82E-01   11.4     0.00057750     -7440.1616042345 -1.97E-01
   140 OT LS       0.85E-01    4.6                    -7440.3528234689
   141 OT CG       0.85E-01   11.6     0.00056525     -7440.3531105573 -1.92E-01
   142 OT LS       0.86E-01    4.6                    -7440.5365266811
   143 OT CG       0.86E-01   11.4     0.00056338     -7440.5365251537 -1.83E-01
   144 OT LS       0.84E-01    4.6                    -7440.7153373158
   145 OT CG       0.84E-01   11.4     0.00055116     -7440.7153897435 -1.79E-01
   146 OT LS       0.83E-01    4.6                    -7440.8846520313
   147 OT CG       0.83E-01   11.4     0.00053424     -7440.8846756456 -1.69E-01
   148 OT LS       0.86E-01    4.6                    -7441.0489885919
   149 OT CG       0.86E-01   11.4     0.00052359     -7441.0491465760 -1.64E-01
   150 OT LS       0.87E-01    4.6                    -7441.2087208417
   151 OT CG       0.87E-01   11.4     0.00052097     -7441.2087360039 -1.60E-01
   152 OT LS       0.85E-01    4.6                    -7441.3638076452
   153 OT CG       0.85E-01   13.3     0.00051248     -7441.3638562607 -1.55E-01
   154 OT LS       0.83E-01    4.7                    -7441.5107263018
   155 OT CG       0.83E-01   11.8     0.00049697     -7441.5107964980 -1.47E-01
   156 OT LS       0.86E-01    4.6                    -7441.6532219301
   157 OT CG       0.86E-01   11.4     0.00048623     -7441.6533449277 -1.43E-01
   158 OT LS       0.87E-01    4.6                    -7441.7916708608
   159 OT CG       0.87E-01   11.4     0.00048300     -7441.7916952650 -1.38E-01
   160 OT LS       0.86E-01    4.6                    -7441.9259184755
   161 OT CG       0.86E-01   11.4     0.00047579     -7441.9259546955 -1.34E-01
   162 OT LS       0.85E-01    4.6                    -7442.0543034438
   163 OT CG       0.85E-01   11.4     0.00046243     -7442.0543325858 -1.28E-01
   164 OT LS       0.86E-01    4.6                    -7442.1778533191
   165 OT CG       0.86E-01   11.4     0.00045117     -7442.1778928545 -1.24E-01
   166 OT LS       0.88E-01    4.6                    -7442.2976043253
   167 OT CG       0.88E-01   11.4     0.00044784     -7442.2976411248 -1.20E-01
   168 OT LS       0.86E-01    4.6                    -7442.4128069160
   169 OT CG       0.86E-01   11.4     0.00043993     -7442.4128724823 -1.15E-01
   170 OT LS       0.86E-01    4.6                    -7442.5244627516
   171 OT CG       0.86E-01   11.6     0.00043009     -7442.5244640214 -1.12E-01
   172 OT LS       0.86E-01    4.6                    -7442.6317219503
   173 OT CG       0.86E-01   11.4     0.00042054     -7442.6317248049 -1.07E-01
   174 OT LS       0.87E-01    4.6                    -7442.7349300776
   175 OT CG       0.87E-01   11.4     0.00041500     -7442.7349342658 -1.03E-01
   176 OT LS       0.87E-01    4.6                    -7442.8356542752
   177 OT CG       0.87E-01   11.4     0.00040843     -7442.8356547231 -1.01E-01
   178 OT LS       0.86E-01    4.6                    -7442.9323787020
   179 OT CG       0.86E-01   13.3     0.00040044     -7442.9323860677 -9.67E-02
   180 OT LS       0.87E-01    4.7                    -7443.0259958739
   181 OT CG       0.87E-01   13.1     0.00039245     -7443.0259998511 -9.36E-02
   182 OT LS       0.87E-01    5.2                    -7443.1160297742
   183 OT CG       0.87E-01   11.4     0.00038592     -7443.1160299500 -9.00E-02
   184 OT LS       0.87E-01    4.6                    -7443.2032125086
   185 OT CG       0.87E-01   11.6     0.00038004     -7443.2032127009 -8.72E-02
   186 OT LS       0.87E-01    4.6                    -7443.2877783801
   187 OT CG       0.87E-01   11.4     0.00037290     -7443.2877783799 -8.46E-02
   188 OT LS       0.88E-01    4.6                    -7443.3694735044
   189 OT CG       0.88E-01   11.4     0.00036703     -7443.3694743872 -8.17E-02
   190 OT LS       0.87E-01    4.6                    -7443.4482465234
   191 OT CG       0.87E-01   11.4     0.00036030     -7443.4482481905 -7.88E-02
   192 OT LS       0.88E-01    4.6                    -7443.5246295687
   193 OT CG       0.88E-01   11.4     0.00035422     -7443.5246326887 -7.64E-02
   194 OT LS       0.88E-01    4.6                    -7443.5985480000
   195 OT CG       0.88E-01   11.4     0.00034783     -7443.5985480625 -7.39E-02
   196 OT LS       0.88E-01    4.6                    -7443.6699780136
   197 OT CG       0.88E-01   11.5     0.00034164     -7443.6699783004 -7.14E-02
   198 OT LS       0.87E-01    4.6                    -7443.7384214240
   199 OT CG       0.87E-01   11.4     0.00033584     -7443.7384243881 -6.84E-02
   200 OT LS       0.87E-01    4.6                    -7443.8045996383
   201 OT CG       0.87E-01   11.6     0.00032904     -7443.8045996752 -6.62E-02
   202 OT LS       0.88E-01    4.6                    -7443.8686876822
   203 OT CG       0.88E-01   11.4     0.00032311     -7443.8686927108 -6.41E-02
   204 OT LS       0.88E-01    4.6                    -7443.9305471134
   205 OT CG       0.88E-01   11.4     0.00031778     -7443.9305471425 -6.19E-02
   206 OT LS       0.89E-01    4.6                    -7443.9905490546
   207 OT CG       0.89E-01   11.4     0.00031273     -7443.9905495782 -6.00E-02
   208 OT LS       0.88E-01    4.6                    -7444.0484493923
   209 OT CG       0.88E-01   11.4     0.00030834     -7444.0484500674 -5.79E-02
   210 OT LS       0.88E-01    4.6                    -7444.1045605524
   211 OT CG       0.88E-01   11.4     0.00030343     -7444.1045610459 -5.61E-02
   212 OT LS       0.88E-01    4.6                    -7444.1590324176
   213 OT CG       0.88E-01   11.4     0.00029833     -7444.1590327100 -5.45E-02
   214 OT LS       0.89E-01    4.6                    -7444.2122368101
   215 OT CG       0.89E-01   11.4     0.00029286     -7444.2122424963 -5.32E-02
   216 OT LS       0.89E-01    4.6                    -7444.2636988399
   217 OT CG       0.89E-01   11.4     0.00028890     -7444.2636995223 -5.15E-02
   218 OT LS       0.89E-01    4.6                    -7444.3132367688
   219 OT CG       0.89E-01   11.4     0.00028464     -7444.3132422266 -4.95E-02
   220 OT LS       0.88E-01    4.6                    -7444.3610611647
   221 OT CG       0.88E-01   11.4     0.00027994     -7444.3610627042 -4.78E-02
   222 OT LS       0.89E-01    4.6                    -7444.4076134943
   223 OT CG       0.89E-01   11.4     0.00027567     -7444.4076153256 -4.66E-02
   224 OT LS       0.89E-01    4.6                    -7444.4530986414
   225 OT CG       0.89E-01   11.4     0.00027078     -7444.4531011698 -4.55E-02
   226 OT LS       0.90E-01    4.8                    -7444.4972824154
   227 OT CG       0.90E-01   13.3     0.00026743     -7444.4972846070 -4.42E-02
   228 OT LS       0.89E-01    4.7                    -7444.5400366990
   229 OT CG       0.89E-01   11.4     0.00026369     -7444.5400393336 -4.28E-02
   230 OT LS       0.89E-01    4.6                    -7444.5814288005
   231 OT CG       0.89E-01   11.5     0.00025970     -7444.5814296263 -4.14E-02
   232 OT LS       0.89E-01    4.6                    -7444.6218258653
   233 OT CG       0.89E-01   11.4     0.00025593     -7444.6218273823 -4.04E-02
   234 OT LS       0.89E-01    4.6                    -7444.6609801832
   235 OT CG       0.89E-01   11.4     0.00025210     -7444.6609803172 -3.92E-02
   236 OT LS       0.89E-01    4.6                    -7444.6989466656
   237 OT CG       0.89E-01   11.4     0.00024816     -7444.6989466713 -3.80E-02
   238 OT LS       0.89E-01    4.6                    -7444.7359160053
   239 OT CG       0.89E-01   11.4     0.00024431     -7444.7359168798 -3.70E-02
   240 OT LS       0.90E-01    4.6                    -7444.7718837296
   241 OT CG       0.90E-01   11.4     0.00024153     -7444.7718842048 -3.60E-02
   242 OT LS       0.90E-01    4.6                    -7444.8069833725
   243 OT CG       0.90E-01   11.4     0.00023814     -7444.8069834523 -3.51E-02
   244 OT LS       0.90E-01    4.6                    -7444.8410775546
   245 OT CG       0.90E-01   11.4     0.00023517     -7444.8410775666 -3.41E-02
   246 OT LS       0.89E-01    4.7                    -7444.8742171840
   247 OT CG       0.89E-01   11.4     0.00023202     -7444.8742175369 -3.31E-02
   248 OT LS       0.90E-01    4.6                    -7444.9065805024
   249 OT CG       0.90E-01   11.4     0.00022902     -7444.9065808146 -3.24E-02
   250 OT LS       0.90E-01    4.6                    -7444.9382277943
   251 OT CG       0.90E-01   11.4     0.00022590     -7444.9382282129 -3.16E-02
   252 OT LS       0.90E-01    4.6                    -7444.9690820840
   253 OT CG       0.90E-01   12.5     0.00022301     -7444.9690822175 -3.09E-02
   254 OT LS       0.90E-01    4.6                    -7444.9990295451
   255 OT CG       0.90E-01   13.5     0.00022036     -7444.9990300215 -2.99E-02
   256 OT LS       0.90E-01    4.9                    -7445.0282614146
   257 OT CG       0.90E-01   11.4     0.00021746     -7445.0282614188 -2.92E-02
   258 OT LS       0.90E-01    4.6                    -7445.0568330145
   259 OT CG       0.90E-01   11.4     0.00021484     -7445.0568334015 -2.86E-02
   260 OT LS       0.90E-01    4.6                    -7445.0847560433
   261 OT CG       0.90E-01   11.5     0.00021229     -7445.0847560821 -2.79E-02
   262 OT LS       0.90E-01    4.6                    -7445.1119475966
   263 OT CG       0.90E-01   11.4     0.00020973     -7445.1119477838 -2.72E-02
   264 OT LS       0.90E-01    4.6                    -7445.1385241880
   265 OT CG       0.90E-01   11.4     0.00020742     -7445.1385242349 -2.66E-02
   266 OT LS       0.90E-01    4.6                    -7445.1644930425
   267 OT CG       0.90E-01   11.4     0.00020461     -7445.1644930668 -2.60E-02
   268 OT LS       0.91E-01    4.6                    -7445.1899301162
   269 OT CG       0.91E-01   11.4     0.00020251     -7445.1899312272 -2.54E-02
   270 OT LS       0.90E-01    4.6                    -7445.2147075319
   271 OT CG       0.90E-01   11.4     0.00019987     -7445.2147083686 -2.48E-02
   272 OT LS       0.90E-01    4.6                    -7445.2388567445
   273 OT CG       0.90E-01   11.4     0.00019756     -7445.2388567495 -2.41E-02
   274 OT LS       0.90E-01    4.6                    -7445.2625179089
   275 OT CG       0.90E-01   11.4     0.00019519     -7445.2625181131 -2.37E-02
   276 OT LS       0.90E-01    4.6                    -7445.2856067079
   277 OT CG       0.90E-01   11.4     0.00019338     -7445.2856067111 -2.31E-02
   278 OT LS       0.90E-01    4.6                    -7445.3082038854
   279 OT CG       0.90E-01   11.4     0.00019080     -7445.3082040797 -2.26E-02
   280 OT LS       0.91E-01    4.6                    -7445.3303858587
   281 OT CG       0.91E-01   11.4     0.00018868     -7445.3303873693 -2.22E-02
   282 OT LS       0.90E-01    4.6                    -7445.3519502605
   283 OT CG       0.90E-01   11.4     0.00018694     -7445.3519510444 -2.16E-02
   284 OT LS       0.90E-01    4.6                    -7445.3730424924
   285 OT CG       0.90E-01   11.4     0.00018457     -7445.3730427573 -2.11E-02
   286 OT LS       0.91E-01    4.6                    -7445.3937264832
   287 OT CG       0.91E-01   11.4     0.00018177     -7445.3937272282 -2.07E-02
   288 OT LS       0.91E-01    4.6                    -7445.4139076019
   289 OT CG       0.91E-01   11.4     0.00018020     -7445.4139082627 -2.02E-02
   290 OT LS       0.90E-01    4.6                    -7445.4335869299
   291 OT CG       0.90E-01   11.6     0.00017813     -7445.4335881596 -1.97E-02
   292 OT LS       0.90E-01    4.6                    -7445.4527783664
   293 OT CG       0.90E-01   11.4     0.00017619     -7445.4527784428 -1.92E-02
   294 OT LS       0.90E-01    4.6                    -7445.4715813228
   295 OT CG       0.90E-01   11.4     0.00017374     -7445.4715813725 -1.88E-02
   296 OT LS       0.91E-01    4.6                    -7445.4899734026
   297 OT CG       0.91E-01   11.4     0.00017179     -7445.4899740172 -1.84E-02
   298 OT LS       0.91E-01    4.6                    -7445.5079633668
   299 OT CG       0.91E-01   11.4     0.00017048     -7445.5079633673 -1.80E-02
   300 OT LS       0.90E-01    4.6                    -7445.5255670980
   301 OT CG       0.90E-01   13.2     0.00016825     -7445.5255677712 -1.76E-02
   302 OT LS       0.91E-01    4.6                    -7445.5428622427
   303 OT CG       0.91E-01   11.4     0.00016662     -7445.5428635331 -1.73E-02
   304 OT LS       0.90E-01    4.6                    -7445.5597198906
   305 OT CG       0.90E-01   11.4     0.00016479     -7445.5597205624 -1.69E-02
   306 OT LS       0.91E-01    4.6                    -7445.5762590474
   307 OT CG       0.91E-01   11.4     0.00016322     -7445.5762591770 -1.65E-02
   308 OT LS       0.91E-01    4.6                    -7445.5924524987
   309 OT CG       0.91E-01   11.4     0.00016113     -7445.5924525591 -1.62E-02
   310 OT LS       0.91E-01    4.6                    -7445.6082781082
   311 OT CG       0.91E-01   11.4     0.00015958     -7445.6082782526 -1.58E-02
   312 OT LS       0.90E-01    4.6                    -7445.6236846069
   313 OT CG       0.90E-01   11.4     0.00015793     -7445.6236855150 -1.54E-02
   314 OT LS       0.91E-01    4.6                    -7445.6388774305
   315 OT CG       0.91E-01   11.4     0.00015601     -7445.6388781072 -1.52E-02
   316 OT LS       0.92E-01    4.6                    -7445.6538590778
   317 OT CG       0.92E-01   11.4     0.00015480     -7445.6538606994 -1.50E-02
   318 OT LS       0.91E-01    4.6                    -7445.6684582218
   319 OT CG       0.91E-01   11.4     0.00015358     -7445.6684597878 -1.46E-02
   320 OT LS       0.90E-01    4.6                    -7445.6827566047
   321 OT CG       0.90E-01   11.6     0.00015180     -7445.6827569655 -1.43E-02
   322 OT LS       0.91E-01    4.6                    -7445.6968302286
   323 OT CG       0.91E-01   11.4     0.00015014     -7445.6968309979 -1.41E-02
   324 OT LS       0.91E-01    4.6                    -7445.7106110547
   325 OT CG       0.91E-01   11.4     0.00014886     -7445.7106110637 -1.38E-02
   326 OT LS       0.91E-01    4.6                    -7445.7240950109
   327 OT CG       0.91E-01   12.3     0.00014739     -7445.7240952800 -1.35E-02
   328 OT LS       0.90E-01    4.7                    -7445.7372747756
   329 OT CG       0.90E-01   13.8     0.00014573     -7445.7372748972 -1.32E-02
   330 OT LS       0.91E-01    4.9                    -7445.7502774743
   331 OT CG       0.91E-01   11.4     0.00014416     -7445.7502785511 -1.30E-02
   332 OT LS       0.91E-01    4.6                    -7445.7630123519
   333 OT CG       0.91E-01   11.4     0.00014313     -7445.7630123590 -1.27E-02
   334 OT LS       0.91E-01    4.6                    -7445.7755060803
   335 OT CG       0.91E-01   11.6     0.00014166     -7445.7755063697 -1.25E-02
   336 OT LS       0.91E-01    4.6                    -7445.7877407161
   337 OT CG       0.91E-01   11.4     0.00014028     -7445.7877407177 -1.22E-02
   338 OT LS       0.91E-01    4.6                    -7445.7997403687
   339 OT CG       0.91E-01   11.4     0.00013875     -7445.7997403693 -1.20E-02
   340 OT LS       0.91E-01    4.6                    -7445.8115405734
   341 OT CG       0.91E-01   11.4     0.00013757     -7445.8115408911 -1.18E-02
   342 OT LS       0.91E-01    4.6                    -7445.8230613537
   343 OT CG       0.91E-01   11.4     0.00013637     -7445.8230618955 -1.15E-02
   344 OT LS       0.91E-01    4.6                    -7445.8343870784
   345 OT CG       0.91E-01   11.4     0.00013508     -7445.8343870790 -1.13E-02
   346 OT LS       0.91E-01    4.6                    -7445.8455418049
   347 OT CG       0.91E-01   11.4     0.00013362     -7445.8455419545 -1.12E-02
   348 OT LS       0.91E-01    4.6                    -7445.8564803820
   349 OT CG       0.91E-01   11.4     0.00013249     -7445.8564804393 -1.09E-02
   350 OT LS       0.91E-01    4.6                    -7445.8672176064
   351 OT CG       0.91E-01   11.6     0.00013110     -7445.8672176312 -1.07E-02
   352 OT LS       0.91E-01    4.6                    -7445.8777612852
   353 OT CG       0.91E-01   11.5     0.00012995     -7445.8777613644 -1.05E-02
   354 OT LS       0.91E-01    4.6                    -7445.8880521641
   355 OT CG       0.91E-01   11.4     0.00012885     -7445.8880526352 -1.03E-02
   356 OT LS       0.91E-01    4.6                    -7445.8981443168
   357 OT CG       0.91E-01   11.4     0.00012769     -7445.8981443780 -1.01E-02
   358 OT LS       0.91E-01    4.6                    -7445.9080987737
   359 OT CG       0.91E-01   11.4     0.00012621     -7445.9080989781 -9.95E-03
   360 OT LS       0.92E-01    4.6                    -7445.9178984032
   361 OT CG       0.92E-01   11.4     0.00012525     -7445.9178989648 -9.80E-03
   362 OT LS       0.91E-01    4.6                    -7445.9274895769
   363 OT CG       0.91E-01   11.4     0.00012425     -7445.9274899810 -9.59E-03
   364 OT LS       0.91E-01    4.6                    -7445.9369274909
   365 OT CG       0.91E-01   11.6     0.00012328     -7445.9369274907 -9.44E-03
   366 OT LS       0.91E-01    4.6                    -7445.9462186933
   367 OT CG       0.91E-01   11.4     0.00012207     -7445.9462186933 -9.29E-03
   368 OT LS       0.92E-01    4.6                    -7445.9553694917
   369 OT CG       0.92E-01   11.4     0.00012111     -7445.9553696844 -9.15E-03
   370 OT LS       0.91E-01    4.6                    -7445.9643721454
   371 OT CG       0.91E-01   11.4     0.00012022     -7445.9643721515 -9.00E-03
   372 OT LS       0.91E-01    4.6                    -7445.9731953658
   373 OT CG       0.91E-01   11.4     0.00011945     -7445.9731956117 -8.82E-03
   374 OT LS       0.91E-01    4.7                    -7445.9818920875
   375 OT CG       0.91E-01   13.2     0.00011819     -7445.9818921092 -8.70E-03
   376 OT LS       0.91E-01    4.7                    -7445.9904382152
   377 OT CG       0.91E-01   11.4     0.00011718     -7445.9904383282 -8.55E-03
   378 OT LS       0.91E-01    4.6                    -7445.9988460065
   379 OT CG       0.91E-01   11.4     0.00011613     -7445.9988460121 -8.41E-03
   380 OT LS       0.92E-01    4.6                    -7446.0071510099
   381 OT CG       0.92E-01   11.5     0.00011529     -7446.0071512685 -8.31E-03
   382 OT LS       0.92E-01    4.6                    -7446.0153282242
   383 OT CG       0.92E-01   11.4     0.00011454     -7446.0153282302 -8.18E-03
   384 OT LS       0.91E-01    4.6                    -7446.0233488078
   385 OT CG       0.91E-01   11.4     0.00011380     -7446.0233491324 -8.02E-03
   386 OT LS       0.91E-01    4.6                    -7446.0312401976
   387 OT CG       0.91E-01   11.4     0.00011301     -7446.0312402914 -7.89E-03
   388 OT LS       0.91E-01    4.6                    -7446.0390507265
   389 OT CG       0.91E-01   11.4     0.00011186     -7446.0390508256 -7.81E-03
   390 OT LS       0.92E-01    4.6                    -7446.0467764706
   391 OT CG       0.92E-01   11.4     0.00011110     -7446.0467771890 -7.73E-03
   392 OT LS       0.91E-01    4.6                    -7446.0543520611
   393 OT CG       0.91E-01   11.4     0.00011027     -7446.0543523470 -7.58E-03
   394 OT LS       0.91E-01    4.6                    -7446.0618113915
   395 OT CG       0.91E-01   11.4     0.00010973     -7446.0618113947 -7.46E-03
   396 OT LS       0.91E-01    4.6                    -7446.0691397478
   397 OT CG       0.91E-01   11.4     0.00010884     -7446.0691401977 -7.33E-03
   398 OT LS       0.92E-01    4.6                    -7446.0764121556
   399 OT CG       0.92E-01   11.4     0.00010788     -7446.0764126872 -7.27E-03
   400 OT LS       0.92E-01    4.6                    -7446.0835688239
   401 OT CG       0.92E-01   12.7     0.00010704     -7446.0835688433 -7.16E-03
   402 OT LS       0.92E-01    4.7                    -7446.0906271442
   403 OT CG       0.92E-01   12.8     0.00010635     -7446.0906271627 -7.06E-03
   404 OT LS       0.91E-01    5.0                    -7446.0975627783
   405 OT CG       0.91E-01   11.4     0.00010575     -7446.0975629235 -6.94E-03
   406 OT LS       0.91E-01    4.6                    -7446.1044117005
   407 OT CG       0.91E-01   11.4     0.00010506     -7446.1044117107 -6.85E-03
   408 OT LS       0.91E-01    4.6                    -7446.1111552417
   409 OT CG       0.91E-01   11.4     0.00010419     -7446.1111552795 -6.74E-03
   410 OT LS       0.91E-01    4.6                    -7446.1178192888
   411 OT CG       0.91E-01   11.5     0.00010347     -7446.1178194208 -6.66E-03
   412 OT LS       0.92E-01    4.6                    -7446.1244030858
   413 OT CG       0.92E-01   11.4     0.00010265     -7446.1244031098 -6.58E-03
   414 OT LS       0.92E-01    4.6                    -7446.1308867160
   415 OT CG       0.92E-01   12.0     0.00010205     -7446.1308867187 -6.48E-03
   416 OT LS       0.91E-01    4.6                    -7446.1372675624
   417 OT CG       0.91E-01   11.4     0.00010120     -7446.1372676788 -6.38E-03
   418 OT LS       0.91E-01    4.6                    -7446.1435522694
   419 OT CG       0.91E-01   11.4     0.00010058     -7446.1435522781 -6.28E-03
   420 OT LS       0.91E-01    4.6                    -7446.1497585582
   421 OT CG       0.91E-01   11.4     0.00009976     -7446.1497585583 -6.21E-03
   422 OT LS       0.92E-01    4.6                    -7446.1558725983
   423 OT CG       0.92E-01   11.4     0.00009911     -7446.1558726135 -6.11E-03
   424 OT LS       0.91E-01    4.6                    -7446.1618972711
   425 OT CG       0.91E-01   11.5     0.00009834     -7446.1618972857 -6.02E-03
   426 OT LS       0.91E-01    4.7                    -7446.1678246902
   427 OT CG       0.91E-01   11.4     0.00009772     -7446.1678246952 -5.93E-03
   428 OT LS       0.92E-01    4.6                    -7446.1736904999
   429 OT CG       0.92E-01   11.4     0.00009706     -7446.1736905247 -5.87E-03
   430 OT LS       0.91E-01    4.6                    -7446.1794680079
   431 OT CG       0.91E-01   11.4     0.00009643     -7446.1794680193 -5.78E-03
   432 OT LS       0.91E-01    4.6                    -7446.1851733412
   433 OT CG       0.91E-01   11.4     0.00009555     -7446.1851733416 -5.71E-03
   434 OT LS       0.92E-01    4.6                    -7446.1908057529
   435 OT CG       0.92E-01   11.4     0.00009493     -7446.1908059102 -5.63E-03
   436 OT LS       0.92E-01    4.6                    -7446.1963570410
   437 OT CG       0.92E-01   11.4     0.00009436     -7446.1963570534 -5.55E-03
   438 OT LS       0.91E-01    4.6                    -7446.2018085962
   439 OT CG       0.91E-01   11.4     0.00009372     -7446.2018087963 -5.45E-03
   440 OT LS       0.91E-01    4.6                    -7446.2071798467
   441 OT CG       0.91E-01   11.6     0.00009291     -7446.2071798536 -5.37E-03
   442 OT LS       0.91E-01    4.6                    -7446.2124571633
   443 OT CG       0.91E-01   11.4     0.00009218     -7446.2124571636 -5.28E-03
   444 OT LS       0.92E-01    4.6                    -7446.2176788968
   445 OT CG       0.92E-01   11.4     0.00009148     -7446.2176790284 -5.22E-03
   446 OT LS       0.92E-01    4.6                    -7446.2228296965
   447 OT CG       0.92E-01   11.4     0.00009083     -7446.2228297099 -5.15E-03
   448 OT LS       0.92E-01    4.8                    -7446.2279022263
   449 OT CG       0.92E-01   12.9     0.00009011     -7446.2279022320 -5.07E-03
   450 OT LS       0.92E-01    4.6                    -7446.2328959680
   451 OT CG       0.92E-01   11.4     0.00008940     -7446.2328959683 -4.99E-03
   452 OT LS       0.92E-01    4.6                    -7446.2378164906
   453 OT CG       0.92E-01   11.4     0.00008899     -7446.2378164937 -4.92E-03
   454 OT LS       0.91E-01    4.6                    -7446.2426644064
   455 OT CG       0.91E-01   11.4     0.00008831     -7446.2426645607 -4.85E-03
   456 OT LS       0.91E-01    4.7                    -7446.2474424366
   457 OT CG       0.91E-01   11.4     0.00008764     -7446.2474424409 -4.78E-03
   458 OT LS       0.91E-01    4.6                    -7446.2521382316
   459 OT CG       0.91E-01   11.4     0.00008699     -7446.2521382541 -4.70E-03
   460 OT LS       0.92E-01    4.6                    -7446.2567930506
   461 OT CG       0.92E-01   11.4     0.00008639     -7446.2567932111 -4.65E-03
   462 OT LS       0.92E-01    4.6                    -7446.2614075355
   463 OT CG       0.92E-01   11.4     0.00008576     -7446.2614076541 -4.61E-03
   464 OT LS       0.92E-01    4.6                    -7446.2659426336
   465 OT CG       0.92E-01   11.4     0.00008541     -7446.2659426600 -4.54E-03
   466 OT LS       0.91E-01    4.6                    -7446.2703964425
   467 OT CG       0.91E-01   11.4     0.00008478     -7446.2703968792 -4.45E-03
   468 OT LS       0.91E-01    4.6                    -7446.2748036984
   469 OT CG       0.91E-01   11.4     0.00008401     -7446.2748037615 -4.41E-03
   470 OT LS       0.92E-01    4.6                    -7446.2791793074
   471 OT CG       0.92E-01   11.6     0.00008355     -7446.2791798568 -4.38E-03
   472 OT LS       0.91E-01    4.6                    -7446.2834596388
   473 OT CG       0.91E-01   11.4     0.00008321     -7446.2834601603 -4.28E-03
   474 OT LS       0.91E-01    4.6                    -7446.2876843645
   475 OT CG       0.91E-01   12.6     0.00008254     -7446.2876844708 -4.22E-03
   476 OT LS       0.91E-01    4.7                    -7446.2918659243
   477 OT CG       0.91E-01   12.4     0.00008193     -7446.2918660612 -4.18E-03
   478 OT LS       0.92E-01    5.6                    -7446.2960149212
   479 OT CG       0.92E-01   11.4     0.00008148     -7446.2960151291 -4.15E-03
   480 OT LS       0.92E-01    4.6                    -7446.3001141011
   481 OT CG       0.92E-01   11.4     0.00008105     -7446.3001141068 -4.10E-03
   482 OT LS       0.91E-01    4.6                    -7446.3041422549
   483 OT CG       0.91E-01   11.4     0.00008059     -7446.3041424405 -4.03E-03
   484 OT LS       0.91E-01    4.6                    -7446.3081252997
   485 OT CG       0.91E-01   11.4     0.00007986     -7446.3081252998 -3.98E-03
   486 OT LS       0.92E-01    4.6                    -7446.3120705455
   487 OT CG       0.92E-01   11.4     0.00007952     -7446.3120708395 -3.95E-03
   488 OT LS       0.92E-01    4.6                    -7446.3159541953
   489 OT CG       0.92E-01   11.4     0.00007910     -7446.3159543881 -3.88E-03
   490 OT LS       0.91E-01    4.6                    -7446.3197795354
   491 OT CG       0.91E-01   11.4     0.00007856     -7446.3197796164 -3.83E-03
   492 OT LS       0.91E-01    4.6                    -7446.3235674844
   493 OT CG       0.91E-01   11.4     0.00007810     -7446.3235675386 -3.79E-03
   494 OT LS       0.92E-01    4.6                    -7446.3273217034
   495 OT CG       0.92E-01   11.4     0.00007759     -7446.3273217300 -3.75E-03
   496 OT LS       0.92E-01    4.6                    -7446.3310431231
   497 OT CG       0.92E-01   11.4     0.00007707     -7446.3310431924 -3.72E-03
   498 OT LS       0.92E-01    4.6                    -7446.3347095376
   499 OT CG       0.92E-01   11.4     0.00007662     -7446.3347095446 -3.67E-03
   500 OT LS       0.92E-01    4.6                    -7446.3383227026

  Leaving inner SCF loop after reaching   500 steps.


  Electronic density on regular grids:      -3295.9999970920        0.0000029080
  Core density on regular grids:             3295.9999997996       -0.0000002004
  Total charge density on r-space grids:        0.0000027076
  Total charge density g-space grids:           0.0000027076

  Overlap energy of the core charge distribution:               0.00000899792364
  Self energy of the core charge distribution:             -19161.94884904004721
  Core Hamiltonian energy:                                   5437.72878811031842
  Hartree energy:                                            8016.02910319826242
  Exchange-correlation energy:                              -1736.00426055048683
  Dispersion energy:                                           -2.14311341858318

  Total energy:                                             -7446.33832270261428

  outer SCF iter =    1 RMS gradient =   0.77E-04 energy =      -7446.3383227026

  ----------------------------------- OT ---------------------------------------
  Minimizer      : CG                  : conjugate gradient
  Preconditioner : FULL_ALL            : diagonalization, state selective
  Precond_solver : DEFAULT
  Line search    : 2PNT                : 2 energies, one gradient
  stepsize       :    0.15000000                  energy_gap     :    0.00100000
  eps_taylor     :   0.10000E-15                  max_taylor     :             4
  ----------------------------------- OT ---------------------------------------

  Step     Update method      Time    Convergence         Total energy    Change
  ------------------------------------------------------------------------------
     1 OT CG       0.15E+00   48.2     0.00051246     -7446.3383227356 -3.61E-03
     2 OT LS       0.25E+00    4.6                    -7446.7071764938
     3 OT CG       0.25E+00   11.4     0.00003535     -7446.7752138371 -4.37E-01
     4 OT LS       0.66E-01    4.6                    -7446.7715407780
     5 OT CG       0.66E-01   11.4     0.00001250     -7446.7757696862 -5.56E-04
     6 OT LS       0.70E-01    4.6                    -7446.7758430628
     7 OT CG       0.70E-01   11.4     0.00000384     -7446.7758432960 -7.36E-05
     8 OT LS       0.13E+00    4.6                    -7446.7758533495
     9 OT CG       0.13E+00   11.4     0.00000158     -7446.7758560073 -1.27E-05
    10 OT LS       0.10E+00    4.6                    -7446.7758575251
    11 OT CG       0.10E+00   11.4     0.00000071     -7446.7758576647 -1.66E-06

  *** SCF run converged in    11 steps ***


  Electronic density on regular grids:      -3295.9999970919        0.0000029081
  Core density on regular grids:             3295.9999997996       -0.0000002004
  Total charge density on r-space grids:        0.0000027077
  Total charge density g-space grids:           0.0000027077

  Overlap energy of the core charge distribution:               0.00000899792364
  Self energy of the core charge distribution:             -19161.94884904004721
  Core Hamiltonian energy:                                   5437.31919318041219
  Hartree energy:                                            8016.08781903681120
  Exchange-correlation energy:                              -1736.09091642118710
  Dispersion energy:                                           -2.14311341858318

  Total energy:                                             -7446.77585766467200

  outer SCF iter =    2 RMS gradient =   0.71E-06 energy =      -7446.7758576647
  outer SCF loop converged in   2 iterations or  511 steps


 ENERGY| Total FORCE_EVAL ( QS ) energy [a.u.]:            -7446.775857954049570

 ATOMIC FORCES in [a.u.]

 # Atom   Kind   Element          X              Y              Z
      1      1      Ti          0.00000000     0.00000000     0.00000000
      2      2      Si          0.00000000     0.00000000     0.00000000
      3      2      Si          0.00000000     0.00000000     0.00000000
      4      2      Si          0.00000000     0.00000000     0.00000000
      5      2      Si          0.00000000     0.00000000     0.00000000
      6      2      Si          0.00000000     0.00000000     0.00000000
      7      2      Si          0.00000000     0.00000000     0.00000000
      8      2      Si          0.00000000     0.00000000     0.00000000
      9      2      Si          0.00000000     0.00000000     0.00000000
     10      2      Si          0.00000000     0.00000000     0.00000000
     11      2      Si          0.00000000     0.00000000     0.00000000
     12      2      Si          0.00000000     0.00000000     0.00000000
     13      2      Si          0.00000000     0.00000000     0.00000000
     14      2      Si          0.00000000     0.00000000     0.00000000
     15      2      Si          0.00000000     0.00000000     0.00000000
     16      2      Si          0.00000000     0.00000000     0.00000000
     17      2      Si          0.00000000     0.00000000     0.00000000
     18      2      Si          0.00000000     0.00000000     0.00000000
     19      2      Si          0.00000000     0.00000000     0.00000000
     20      2      Si          0.00000000     0.00000000     0.00000000
     21      2      Si          0.00000000     0.00000000     0.00000000
     22      2      Si          0.00000000     0.00000000     0.00000000
     23      2      Si          0.00000000     0.00000000     0.00000000
     24      2      Si          0.00000000     0.00000000     0.00000000
     25      2      Si          0.00000000     0.00000000     0.00000000
     26      2      Si          0.00000000     0.00000000     0.00000000
     27      2      Si          0.00000000     0.00000000     0.00000000
     28      2      Si          0.00000000     0.00000000     0.00000000
     29      2      Si          0.00000000     0.00000000     0.00000000
     30      2      Si          0.00000000     0.00000000     0.00000000
     31      2      Si          0.00000000     0.00000000     0.00000000
     32      2      Si          0.00000000     0.00000000     0.00000000
     33      2      Si          0.00000000     0.00000000     0.00000000
     34      2      Si          0.00000000     0.00000000     0.00000000
     35      2      Si          0.00000000     0.00000000     0.00000000
     36      2      Si          0.00000000     0.00000000     0.00000000
     37      2      Si          0.00000000     0.00000000     0.00000000
     38      2      Si          0.00000000     0.00000000     0.00000000
     39      2      Si          0.00000000     0.00000000     0.00000000
     40      2      Si          0.00000000     0.00000000     0.00000000
     41      2      Si          0.00000000     0.00000000     0.00000000
     42      2      Si          0.00000000     0.00000000     0.00000000
     43      2      Si          0.00000000     0.00000000     0.00000000
     44      2      Si          0.00000000     0.00000000     0.00000000
     45      2      Si          0.00000000     0.00000000     0.00000000
     46      2      Si          0.00000000     0.00000000     0.00000000
     47      2      Si          0.00000000     0.00000000     0.00000000
     48      2      Si          0.00000000     0.00000000     0.00000000
     49      2      Si          0.00000000     0.00000000     0.00000000
     50      2      Si          0.00000000     0.00000000     0.00000000
     51      2      Si          0.00000000     0.00000000     0.00000000
     52      2      Si          0.00000000     0.00000000     0.00000000
     53      2      Si          0.00000000     0.00000000     0.00000000
     54      2      Si          0.00000000     0.00000000     0.00000000
     55      2      Si          0.00000000     0.00000000     0.00000000
     56      2      Si          0.00000000     0.00000000     0.00000000
     57      2      Si          0.00000000     0.00000000     0.00000000
     58      2      Si          0.00000000     0.00000000     0.00000000
     59      2      Si          0.00000000     0.00000000     0.00000000
     60      2      Si          0.00000000     0.00000000     0.00000000
     61      2      Si          0.00000000     0.00000000     0.00000000
     62      2      Si          0.00000000     0.00000000     0.00000000
     63      2      Si          0.00000000     0.00000000     0.00000000
     64      2      Si          0.00000000     0.00000000     0.00000000
     65      2      Si          0.00000000     0.00000000     0.00000000
     66      2      Si          0.00000000     0.00000000     0.00000000
     67      2      Si          0.00000000     0.00000000     0.00000000
     68      2      Si          0.00000000     0.00000000     0.00000000
     69      2      Si          0.00000000     0.00000000     0.00000000
     70      2      Si          0.00000000     0.00000000     0.00000000
     71      2      Si          0.00000000     0.00000000     0.00000000
     72      2      Si          0.00000000     0.00000000     0.00000000
     73      2      Si          0.00000000     0.00000000     0.00000000
     74      2      Si          0.00000000     0.00000000     0.00000000
     75      2      Si          0.00000000     0.00000000     0.00000000
     76      2      Si          0.00000000     0.00000000     0.00000000
     77      2      Si          0.00000000     0.00000000     0.00000000
     78      2      Si          0.00000000     0.00000000     0.00000000
     79      2      Si          0.00000000     0.00000000     0.00000000
     80      2      Si          0.00000000     0.00000000     0.00000000
     81      2      Si          0.00000000     0.00000000     0.00000000
     82      2      Si          0.00000000     0.00000000     0.00000000
     83      2      Si          0.00000000     0.00000000     0.00000000
     84      2      Si          0.00000000     0.00000000     0.00000000
     85      2      Si          0.00000000     0.00000000     0.00000000
     86      2      Si          0.00000000     0.00000000     0.00000000
     87      2      Si          0.00000000     0.00000000     0.00000000
     88      2      Si          0.00000000     0.00000000     0.00000000
     89      2      Si          0.00000000     0.00000000     0.00000000
     90      2      Si          0.00000000     0.00000000     0.00000000
     91      2      Si          0.00000000     0.00000000     0.00000000
     92      2      Si          0.00000000     0.00000000     0.00000000
     93      2      Si          0.00000000     0.00000000     0.00000000
     94      2      Si          0.00000000     0.00000000     0.00000000
     95      2      Si          0.00000000     0.00000000     0.00000000
     96      2      Si          0.00000000     0.00000000     0.00000000
     97      2      Si          0.00000000     0.00000000     0.00000000
     98      2      Si          0.00000000     0.00000000     0.00000000
     99      2      Si          0.00000000     0.00000000     0.00000000
    100      2      Si          0.00000000     0.00000000     0.00000000
    101      2      Si          0.00000000     0.00000000     0.00000000
    102      2      Si          0.00000000     0.00000000     0.00000000
    103      2      Si          0.00000000     0.00000000     0.00000000
    104      2      Si          0.00000000     0.00000000     0.00000000
    105      2      Si          0.00000000     0.00000000     0.00000000
    106      2      Si          0.00000000     0.00000000     0.00000000
    107      2      Si          0.00000000     0.00000000     0.00000000
    108      2      Si          0.00000000     0.00000000     0.00000000
    109      2      Si          0.00000000     0.00000000     0.00000000
    110      2      Si          0.00000000     0.00000000     0.00000000
    111      2      Si          0.00000000     0.00000000     0.00000000
    112      2      Si          0.00000000     0.00000000     0.00000000
    113      2      Si          0.00000000     0.00000000     0.00000000
    114      2      Si          0.00000000     0.00000000     0.00000000
    115      2      Si          0.00000000     0.00000000     0.00000000
    116      2      Si          0.00000000     0.00000000     0.00000000
    117      2      Si          0.00000000     0.00000000     0.00000000
    118      2      Si          0.00000000     0.00000000     0.00000000
    119      2      Si          0.00000000     0.00000000     0.00000000
    120      2      Si          0.00000000     0.00000000     0.00000000
    121      2      Si          0.00000000     0.00000000     0.00000000
    122      2      Si          0.00000000     0.00000000     0.00000000
    123      2      Si          0.00000000     0.00000000     0.00000000
    124      2      Si          0.00000000     0.00000000     0.00000000
    125      2      Si          0.00000000     0.00000000     0.00000000
    126      2      Si          0.00000000     0.00000000     0.00000000
    127      2      Si          0.00000000     0.00000000     0.00000000
    128      2      Si          0.00000000     0.00000000     0.00000000
    129      2      Si          0.00000000     0.00000000     0.00000000
    130      2      Si          0.00000000     0.00000000     0.00000000
    131      2      Si          0.00000000     0.00000000     0.00000000
    132      2      Si          0.00000000     0.00000000     0.00000000
    133      2      Si          0.00000000     0.00000000     0.00000000
    134      2      Si          0.00000000     0.00000000     0.00000000
    135      2      Si          0.00000000     0.00000000     0.00000000
    136      2      Si          0.00000000     0.00000000     0.00000000
    137      2      Si          0.00000000     0.00000000     0.00000000
    138      2      Si          0.00000000     0.00000000     0.00000000
    139      2      Si          0.00000000     0.00000000     0.00000000
    140      2      Si          0.00000000     0.00000000     0.00000000
    141      2      Si          0.00000000     0.00000000     0.00000000
    142      2      Si          0.00000000     0.00000000     0.00000000
    143      2      Si          0.00000000     0.00000000     0.00000000
    144      2      Si          0.00000000     0.00000000     0.00000000
    145      2      Si          0.00000000     0.00000000     0.00000000
    146      2      Si          0.00000000     0.00000000     0.00000000
    147      2      Si          0.00000000     0.00000000     0.00000000
    148      2      Si          0.00000000     0.00000000     0.00000000
    149      2      Si          0.00000000     0.00000000     0.00000000
    150      2      Si          0.00000000     0.00000000     0.00000000
    151      2      Si          0.00000000     0.00000000     0.00000000
    152      2      Si          0.00000000     0.00000000     0.00000000
    153      2      Si          0.00000000     0.00000000     0.00000000
    154      2      Si          0.00000000     0.00000000     0.00000000
    155      2      Si          0.00000000     0.00000000     0.00000000
    156      2      Si          0.00000000     0.00000000     0.00000000
    157      2      Si          0.00000000     0.00000000     0.00000000
    158      2      Si          0.00000000     0.00000000     0.00000000
    159      2      Si          0.00000000     0.00000000     0.00000000
    160      2      Si          0.00000000     0.00000000     0.00000000
    161      2      Si          0.00000000     0.00000000     0.00000000
    162      2      Si          0.00000000     0.00000000     0.00000000
    163      2      Si          0.00000000     0.00000000     0.00000000
    164      2      Si          0.00000000     0.00000000     0.00000000
    165      2      Si          0.00000000     0.00000000     0.00000000
    166      2      Si          0.00000000     0.00000000     0.00000000
    167      2      Si          0.00000000     0.00000000     0.00000000
    168      2      Si          0.00000000     0.00000000     0.00000000
    169      2      Si          0.00000000     0.00000000     0.00000000
    170      2      Si          0.00000000     0.00000000     0.00000000
    171      2      Si          0.00000000     0.00000000     0.00000000
    172      2      Si          0.00000000     0.00000000     0.00000000
    173      2      Si          0.00000000     0.00000000     0.00000000
    174      2      Si          0.00000000     0.00000000     0.00000000
    175      2      Si          0.00000000     0.00000000     0.00000000
    176      2      Si          0.00000000     0.00000000     0.00000000
    177      2      Si          0.00000000     0.00000000     0.00000000
    178      2      Si          0.00000000     0.00000000     0.00000000
    179      2      Si          0.00000000     0.00000000     0.00000000
    180      2      Si          0.00000000     0.00000000     0.00000000
    181      2      Si          0.00000000     0.00000000     0.00000000
    182      2      Si          0.00000000     0.00000000     0.00000000
    183      2      Si          0.00000000     0.00000000     0.00000000
    184      2      Si          0.00000000     0.00000000     0.00000000
    185      2      Si          0.00000000     0.00000000     0.00000000
    186      2      Si          0.00000000     0.00000000     0.00000000
    187      2      Si          0.00000000     0.00000000     0.00000000
    188      2      Si          0.00000000     0.00000000     0.00000000
    189      2      Si          0.00000000     0.00000000     0.00000000
    190      2      Si          0.00000000     0.00000000     0.00000000
    191      2      Si          0.00000000     0.00000000     0.00000000
    192      3      O           0.00000000     0.00000000     0.00000000
    193      3      O           0.00000000     0.00000000     0.00000000
    194      3      O           0.00000000     0.00000000     0.00000000
    195      3      O           0.00000000     0.00000000     0.00000000
    196      3      O           0.00000000     0.00000000     0.00000000
    197      3      O           0.00000000     0.00000000     0.00000000
    198      3      O           0.00000000     0.00000000     0.00000000
    199      3      O           0.00000000     0.00000000     0.00000000
    200      3      O           0.00000000     0.00000000     0.00000000
    201      3      O           0.00000000     0.00000000     0.00000000
    202      3      O           0.00000000     0.00000000     0.00000000
    203      3      O           0.00000000     0.00000000     0.00000000
    204      3      O           0.00000000     0.00000000     0.00000000
    205      3      O           0.00000000     0.00000000     0.00000000
    206      3      O           0.00000000     0.00000000     0.00000000
    207      3      O           0.00000000     0.00000000     0.00000000
    208      3      O           0.00000000     0.00000000     0.00000000
    209      3      O           0.00000000     0.00000000     0.00000000
    210      3      O           0.00000000     0.00000000     0.00000000
    211      3      O           0.00000000     0.00000000     0.00000000
    212      3      O           0.00000000     0.00000000     0.00000000
    213      3      O           0.00000000     0.00000000     0.00000000
    214      3      O           0.00000000     0.00000000     0.00000000
    215      3      O           0.00000000     0.00000000     0.00000000
    216      3      O           0.00000000     0.00000000     0.00000000
    217      3      O           0.00000000     0.00000000     0.00000000
    218      3      O           0.00000000     0.00000000     0.00000000
    219      3      O           0.00000000     0.00000000     0.00000000
    220      3      O           0.00000000     0.00000000     0.00000000
    221      3      O           0.00000000     0.00000000     0.00000000
    222      3      O           0.00000000     0.00000000     0.00000000
    223      3      O           0.00000000     0.00000000     0.00000000
    224      3      O           0.00000000     0.00000000     0.00000000
    225      3      O           0.00000000     0.00000000     0.00000000
    226      3      O           0.00000000     0.00000000     0.00000000
    227      3      O           0.00000000     0.00000000     0.00000000
    228      3      O           0.00000000     0.00000000     0.00000000
    229      3      O           0.00000000     0.00000000     0.00000000
    230      3      O           0.00000000     0.00000000     0.00000000
    231      3      O           0.00000000     0.00000000     0.00000000
    232      3      O           0.00000000     0.00000000     0.00000000
    233      3      O           0.00000000     0.00000000     0.00000000
    234      3      O           0.00000000     0.00000000     0.00000000
    235      3      O           0.00000000     0.00000000     0.00000000
    236      3      O           0.00000000     0.00000000     0.00000000
    237      3      O           0.00000000     0.00000000     0.00000000
    238      3      O           0.00000000     0.00000000     0.00000000
    239      3      O           0.00000000     0.00000000     0.00000000
    240      3      O           0.00000000     0.00000000     0.00000000
    241      3      O           0.00000000     0.00000000     0.00000000
    242      3      O           0.00000000     0.00000000     0.00000000
    243      3      O           0.00000000     0.00000000     0.00000000
    244      3      O           0.00000000     0.00000000     0.00000000
    245      3      O           0.00000000     0.00000000     0.00000000
    246      3      O           0.00000000     0.00000000     0.00000000
    247      3      O           0.00000000     0.00000000     0.00000000
    248      3      O           0.00000000     0.00000000     0.00000000
    249      3      O           0.00000000     0.00000000     0.00000000
    250      3      O           0.00000000     0.00000000     0.00000000
    251      3      O           0.00000000     0.00000000     0.00000000
    252      3      O           0.00000000     0.00000000     0.00000000
    253      3      O           0.00000000     0.00000000     0.00000000
    254      3      O           0.00000000     0.00000000     0.00000000
    255      3      O           0.00000000     0.00000000     0.00000000
    256      3      O           0.00000000     0.00000000     0.00000000
    257      3      O           0.00000000     0.00000000     0.00000000
    258      3      O           0.00000000     0.00000000     0.00000000
    259      3      O           0.00000000     0.00000000     0.00000000
    260      3      O           0.00000000     0.00000000     0.00000000
    261      3      O           0.00000000     0.00000000     0.00000000
    262      3      O           0.00000000     0.00000000     0.00000000
    263      3      O           0.00000000     0.00000000     0.00000000
    264      3      O           0.00000000     0.00000000     0.00000000
    265      3      O           0.00000000     0.00000000     0.00000000
    266      3      O           0.00000000     0.00000000     0.00000000
    267      3      O           0.00000000     0.00000000     0.00000000
    268      3      O           0.00000000     0.00000000     0.00000000
    269      3      O           0.00000000     0.00000000     0.00000000
    270      3      O           0.00000000     0.00000000     0.00000000
    271      3      O           0.00000000     0.00000000     0.00000000
    272      3      O           0.00000000     0.00000000     0.00000000
    273      3      O           0.00000000     0.00000000     0.00000000
    274      3      O           0.00000000     0.00000000     0.00000000
    275      3      O           0.00000000     0.00000000     0.00000000
    276      3      O           0.00000000     0.00000000     0.00000000
    277      3      O           0.00000000     0.00000000     0.00000000
    278      3      O           0.00000000     0.00000000     0.00000000
    279      3      O           0.00000000     0.00000000     0.00000000
    280      3      O           0.00000000     0.00000000     0.00000000
    281      3      O           0.00000000     0.00000000     0.00000000
    282      3      O           0.00000000     0.00000000     0.00000000
    283      3      O           0.00000000     0.00000000     0.00000000
    284      3      O           0.00000000     0.00000000     0.00000000
    285      3      O           0.00000000     0.00000000     0.00000000
    286      3      O           0.00000000     0.00000000     0.00000000
    287      3      O           0.00000000     0.00000000     0.00000000
    288      3      O           0.00000000     0.00000000     0.00000000
    289      3      O           0.00000000     0.00000000     0.00000000
    290      3      O           0.00000000     0.00000000     0.00000000
    291      3      O           0.00000000     0.00000000     0.00000000
    292      3      O           0.00000000     0.00000000     0.00000000
    293      3      O           0.00000000     0.00000000     0.00000000
    294      3      O           0.00000000     0.00000000     0.00000000
    295      3      O           0.00000000     0.00000000     0.00000000
    296      3      O           0.00000000     0.00000000     0.00000000
    297      3      O           0.00000000     0.00000000     0.00000000
    298      3      O           0.00000000     0.00000000     0.00000000
    299      3      O           0.00000000     0.00000000     0.00000000
    300      3      O           0.00000000     0.00000000     0.00000000
    301      3      O           0.00000000     0.00000000     0.00000000
    302      3      O           0.00000000     0.00000000     0.00000000
    303      3      O           0.00000000     0.00000000     0.00000000
    304      3      O           0.00000000     0.00000000     0.00000000
    305      3      O           0.00000000     0.00000000     0.00000000
    306      3      O           0.00000000     0.00000000     0.00000000
    307      3      O           0.00000000     0.00000000     0.00000000
    308      3      O           0.00000000     0.00000000     0.00000000
    309      3      O           0.00000000     0.00000000     0.00000000
    310      3      O           0.00000000     0.00000000     0.00000000
    311      3      O           0.00000000     0.00000000     0.00000000
    312      3      O           0.00000000     0.00000000     0.00000000
    313      3      O           0.00000000     0.00000000     0.00000000
    314      3      O           0.00000000     0.00000000     0.00000000
    315      3      O           0.00000000     0.00000000     0.00000000
    316      3      O           0.00000000     0.00000000     0.00000000
    317      3      O           0.00000000     0.00000000     0.00000000
    318      3      O           0.00000000     0.00000000     0.00000000
    319      3      O           0.00000000     0.00000000     0.00000000
    320      3      O           0.00000000     0.00000000     0.00000000
    321      3      O           0.00000000     0.00000000     0.00000000
    322      3      O           0.00000000     0.00000000     0.00000000
    323      3      O           0.00000000     0.00000000     0.00000000
    324      3      O           0.00000000     0.00000000     0.00000000
    325      3      O           0.00000000     0.00000000     0.00000000
    326      3      O           0.00000000     0.00000000     0.00000000
    327      3      O           0.00000000     0.00000000     0.00000000
    328      3      O           0.00000000     0.00000000     0.00000000
    329      3      O           0.00000000     0.00000000     0.00000000
    330      3      O           0.00000000     0.00000000     0.00000000
    331      3      O           0.00000000     0.00000000     0.00000000
    332      3      O           0.00000000     0.00000000     0.00000000
    333      3      O           0.00000000     0.00000000     0.00000000
    334      3      O           0.00000000     0.00000000     0.00000000
    335      3      O           0.00000000     0.00000000     0.00000000
    336      3      O           0.00000000     0.00000000     0.00000000
    337      3      O           0.00000000     0.00000000     0.00000000
    338      3      O           0.00000000     0.00000000     0.00000000
    339      3      O           0.00000000     0.00000000     0.00000000
    340      3      O           0.00000000     0.00000000     0.00000000
    341      3      O           0.00000000     0.00000000     0.00000000
    342      3      O           0.00000000     0.00000000     0.00000000
    343      3      O           0.00000000     0.00000000     0.00000000
    344      3      O           0.00000000     0.00000000     0.00000000
    345      3      O           0.00000000     0.00000000     0.00000000
    346      3      O           0.00000000     0.00000000     0.00000000
    347      3      O           0.00000000     0.00000000     0.00000000
    348      3      O           0.00000000     0.00000000     0.00000000
    349      3      O           0.00000000     0.00000000     0.00000000
    350      3      O           0.00000000     0.00000000     0.00000000
    351      3      O           0.00000000     0.00000000     0.00000000
    352      3      O           0.00000000     0.00000000     0.00000000
    353      3      O           0.00000000     0.00000000     0.00000000
    354      3      O           0.00000000     0.00000000     0.00000000
    355      3      O           0.00000000     0.00000000     0.00000000
    356      3      O           0.00000000     0.00000000     0.00000000
    357      3      O           0.00000000     0.00000000     0.00000000
    358      3      O           0.00000000     0.00000000     0.00000000
    359      3      O           0.00000000     0.00000000     0.00000000
    360      3      O           0.00000000     0.00000000     0.00000000
    361      3      O           0.00000000     0.00000000     0.00000000
    362      3      O           0.00000000     0.00000000     0.00000000
    363      3      O           0.00000000     0.00000000     0.00000000
    364      3      O           0.00000000     0.00000000     0.00000000
[...]
 flops   416 x   256 x   128        4078977417216       0.0%    100.0%      0.0%
 flops  2028 x   288 x   683        4107236170752       0.0%    100.0%      0.0%
 flops  2038 x   272 x   160        4165236357120       0.0%    100.0%      0.0%
 flops  2028 x   288 x   160        4388610170880       0.0%    100.0%      0.0%
 flops   416 x   256 x   675        4984204492800       0.0%    100.0%      0.0%
 flops    13 x    32 x     5        5290800041280       0.0%    100.0%      0.0%
 flops     5 x    32 x    13        5290800041280       0.0%    100.0%      0.0%
 flops   416 x   288 x   667        5540773994496       0.0%    100.0%      0.0%
 flops  2028 x   256 x   128        5548070141952       0.0%    100.0%      0.0%
 flops   416 x   288 x   683        5673686114304       0.0%    100.0%      0.0%
 flops  2038 x   272 x   675        5778786499200       0.0%    100.0%      0.0%
 flops  2028 x   288 x   675        6088691980800       0.0%    100.0%      0.0%
 flops   416 x   288 x   128        6883274391552       0.0%    100.0%      0.0%
 flops  2038 x   256 x   667        7165863124992       0.0%    100.0%      0.0%
 flops  2038 x   256 x   683        7337757892608       0.0%    100.0%      0.0%
 flops    13 x    13 x   160        7583833845120       0.0%    100.0%      0.0%
 flops  2038 x   256 x   160        7840444907520       0.0%    100.0%      0.0%
 flops   416 x   288 x   675        8410845081600       0.0%    100.0%      0.0%
 flops  2038 x   272 x   128        8885837561856       0.0%    100.0%      0.0%
 flops  2028 x   288 x   128        9362368364544       0.0%    100.0%      0.0%
 flops  2038 x   256 x   675       10877715763200       0.0%    100.0%      0.0%
 flops  2038 x   288 x   667       12092394023424       0.0%    100.0%      0.0%
 flops  2038 x   288 x   683       12382466443776       0.0%    100.0%      0.0%
 flops  2038 x   288 x   160       13230750781440       0.0%    100.0%      0.0%
 flops    13 x    13 x   128       16178845536256       0.0%    100.0%      0.0%
 flops  2038 x   256 x   128       16726282469376       0.0%    100.0%      0.0%
 flops  2038 x   288 x   675       18356145350400       0.0%    100.0%      0.0%
 flops  2038 x   288 x   128       28225601667072       0.0%    100.0%      0.0%
 flops    13 x    32 x    13       99694788680448       0.0%    100.0%      0.0%
 flops inhomo. stacks             115697507829120     100.0%      0.0%      0.0%
 flops total                       559.562629E+12      20.7%     79.3%      0.0%
 flops max/rank                     24.512115E+12      20.7%     79.3%      0.0%
 matmuls inhomo. stacks                    334080     100.0%      0.0%      0.0%
 matmuls total                        13065188836       0.0%    100.0%      0.0%
 number of processed stacks              17932074       1.9%     98.1%      0.0%
 average stack size                                     1.0     742.4       0.0
 marketing flops                   942.058395E+12
 -------------------------------------------------------------------------------
 # multiplications                          10988
 max memory usage/rank             996.196352E+06
 # max total images/rank                        3
 # max 3D layers                                1
 # MPI messages exchanged                 5010528
 MPI messages size (bytes):
  total size                         8.917757E+12
  min size                           0.000000E+00
  max size                          11.266064E+06
  average size                       1.779804E+06
 MPI breakdown and total messages size (bytes):
             size <=      128               27984                        0
       128 < size <=     8192                   0                        0
      8192 < size <=    32768                1056                 34603008
     32768 < size <=   131072                 528                 20815872
    131072 < size <=  4194304             4775040            6643847098192
   4194304 < size <= 16777216              205920            2275147068480
  16777216 < size                               0                        0
 -------------------------------------------------------------------------------

 *** WARNING in dbcsr_mm.F:294 :: Using a non-square number of MPI ranks ***
 *** might lead to poor performance. Used ranks: 24 Suggested: 25 49     ***

 -------------------------------------------------------------------------------
 -                                                                             -
 -                      DBCSR MESSAGE PASSING PERFORMANCE                      -
 -                                                                             -
 -------------------------------------------------------------------------------
 ROUTINE             CALLS      AVE VOLUME [Bytes]
 MP_Bcast              124                     12.
 MP_Allreduce        55584                    127.
 MP_Alltoall         49315                 759746.
 MP_ISend           506968                 803363.
 MP_IRecv           498512                 809673.
 -------------------------------------------------------------------------------

 -------------------------------------------------------------------------------
 -                                                                             -
 -                                GRID STATISTICS                              -
 -                                                                             -
 -------------------------------------------------------------------------------
 LP    KERNEL             BACKEND                              COUNT     PERCENT
 4     collocate ortho    REF                              224779742      50.15%
 4     integrate ortho    REF                              112389871      25.08%
 3     collocate ortho    REF                               49006752      10.93%
 3     integrate ortho    REF                               24503376       5.47%
 7     integrate ortho    REF                               12260858       2.74%
 2     collocate ortho    REF                               12250600       2.73%
 2     integrate ortho    REF                                6125300       1.37%
 6     integrate ortho    REF                                2686597       0.60%
 5     collocate ortho    REF                                1386000       0.31%
 5     integrate ortho    REF                                1361201       0.30%
 0     collocate general  REF                                 682152       0.15%
 3     integrate general  REF                                 666288       0.15%
 8     integrate ortho    REF                                  75600       0.02%
 6     collocate ortho    REF                                  27720       0.01%
 9     integrate ortho    REF                                   1512       0.00%
 -------------------------------------------------------------------------------

 MEMORY| Estimated peak process memory [MiB]                                 951

 -------------------------------------------------------------------------------
 -                                                                             -
 -                         MESSAGE PASSING PERFORMANCE                         -
 -                                                                             -
 -------------------------------------------------------------------------------

 ROUTINE             CALLS      AVE VOLUME [Bytes]
 MP_Group                5
 MP_Bcast            35516                 238188.
 MP_Allreduce        94090                   1229.
 MP_Sync               689
 MP_Alltoall         13167               34040182.
 MP_SendRecv          3864                  16339.
 MP_ISendRecv        82593                 127093.
 MP_Wait            163033
 MP_ISend            71806                 804581.
 MP_IRecv            71806                 804749.
 MP_Recv              5751                1421155.
 -------------------------------------------------------------------------------


 -------------------------------------------------------------------------------
 -                                                                             -
 -                           R E F E R E N C E S                               -
 -                                                                             -
 -------------------------------------------------------------------------------
 
 CP2K version 9.1, the CP2K developers group (2021).
 CP2K is freely available from https://www.cp2k.org/ .

 Kuehne,Thomas D.; Iannuzzi,Marcella; Del Ben,Mauro;
 Rybkin,Vladimir V.; Seewald,Patrick; Stein,Frederick; Laino,Teodoro;
 Khaliullin,Rustam Z.; Schuett,Ole; Schiffmann,Florian; Golze,Dorothea;
 Wilhelm,Jan; Chulkov,Sergey; Bani-Hashemian,Mohammad Hossein;
 Weber,Valery; Borstnik,Urban; Taillefumier,Mathieu;
 Jakobovits,Alice Shoshana; Lazzaro,Alfio; Pabst,Hans; Mueller,Tiziano;
 Schade,Robert; Guidon,Manuel; Andermatt,Samuel; Holmberg,Nico;
 Schenter,Gregory K.; Hehn,Anna; Bussy,Augustin; Belleflamme,Fabian;
 Tabacchi,Gloria; Gloess,Andreas; Lass,Michael; Bethune,Iain;
 Mundy,Christopher J.; Plessl,Christian; Watkins,Matt;
 VandeVondele,Joost; Krack,Matthias; Hutter,Juerg. 
 The Journal of Chemical Physics, 152 (19), (2020). 
 CP2K: An electronic structure and molecular dynamics software package -
 Quickstep: Efficient and accurate electronic structure calculations.
 https://doi.org/10.1063/5.0007045

 Goerigk, Lars; Hansen, Andreas; Bauer, Christoph; Ehrlich, Stephan;
 Najibi, Asim; Grimme, Stefan. , 19 (48), (2017). 
 A look at the density functional theory zoo with the advanced GMTKN55 database
 for general main group thermochemistry, kinetics and noncovalent interactions.
 https://doi.org/10.1039/C7CP04913G

 Schuett, Ole; Messmer, Peter; Hutter, Juerg; VandeVondele, Joost. 
 Electronic Structure Calculations on Graphics Processing Units, John
 Wiley & Sons, Ltd, 173-190 (2016). 
 GPU-Accelerated Sparse Matrix-Matrix Multiplication for
 Linear Scaling Density Functional Theory.
 https://doi.org/10.1002/9781118670712.ch8

 Heinecke, A; Henry, G; Hutchinson, M; Pabst, H. 
 Proceedings of Intl. Supercomputing Conference, 981-991 (2016). 
 LIBXSMM: Accelerating Small Matrix Multiplications
 by Runtime Code Generation.
 https://doi.org/10.1109/SC.2016.83

 Borstnik, U; VandeVondele, J; Weber, V; Hutter, J. 
 PARALLEL COMPUTING, 40 (5-6), 47-58 (2014). 
 Sparse matrix multiplication: The distributed block-compressed sparse
 row library.
 https://doi.org/10.1016/j.parco.2014.03.012

 Hutter, J; Iannuzzi, M; Schiffmann, F; VandeVondele, J. 
 WIREs Comput Mol Sci., 4 (1), 15-25 (2014). 
 CP2K: atomistic simulations of condensed matter systems.
 https://doi.org/10.1002/wcms.1159

 Grimme, S; Ehrlich, S; Goerigk, L. 
 JOURNAL OF COMPUTATIONAL CHEMISTRY, 32, 1456 (2011). 
 Effect of the damping function in dispersion corrected density functional theory.
 https://doi.org/10.1002/jcc.21759

 Grimme, S; Antony, J; Ehrlich, S; Krieg, H. 
 JOURNAL OF CHEMICAL PHYSICS, 132 (15), 154104 (2010). 
 A consistent and accurate ab initio parametrization of density
 functional dispersion correction (DFT-D) for the 94 elements H-Pu.
 https://doi.org/10.1063/1.3382344

 VandeVondele, J; Hutter, J. 
 JOURNAL OF CHEMICAL PHYSICS, 127 (11), 114105 (2007). 
 Gaussian basis sets for accurate calculations on molecular systems in
 gas and condensed phases.
 https://doi.org/10.1063/1.2770708

 Kuhne, TD; Krack, M; Mohamed, FR; Parrinello, M. 
 PHYSICAL REVIEW LETTERS, 98 (6), 066401 (2007). 
 Efficient and accurate Car-Parrinello-like approach to
 Born-Oppenheimer molecular dynamics.
 https://doi.org/10.1103/PhysRevLett.98.066401

 Krack, M. 
 THEORETICAL CHEMISTRY ACCOUNTS, 114 (1-3), 145-152 (2005). 
 Pseudopotentials for H to Kr optimized for gradient-corrected
 exchange-correlation functionals.
 https://doi.org/10.1007/s00214-005-0655-y

 VandeVondele, J; Krack, M; Mohamed, F; Parrinello, M; Chassaing, T;
 Hutter, J. COMPUTER PHYSICS COMMUNICATIONS, 167 (2), 103-128 (2005). 
 QUICKSTEP: Fast and accurate density functional calculations using a
 mixed Gaussian and plane waves approach.
 https://doi.org/10.1016/j.cpc.2004.12.014

 Frigo, M; Johnson, SG. 
 PROCEEDINGS OF THE IEEE, 93 (2), 216-231 (2005). 
 The design and implementation of FFTW3.
 https://doi.org/10.1109/JPROC.2004.840301

 Kolafa, J. 
 JOURNAL OF COMPUTATIONAL CHEMISTRY, 25 (3), 335-342 (2004). 
 Time-reversible always stable predictor-corrector method for
 molecular dynamics of polarizable molecules.
 https://doi.org/10.1002/jcc.10385

 VandeVondele, J; Hutter, J. 
 JOURNAL OF CHEMICAL PHYSICS, 118 (10), 4365-4369 (2003). 
 An efficient orbital transformation method for electronic structure
 calculations.
 https://doi.org/10.1063/1.1543154

 Hartwigsen, C; Goedecker, S; Hutter, J. 
 PHYSICAL REVIEW B, 58 (7), 3641-3662 (1998). 
 Relativistic separable dual-space Gaussian pseudopotentials from H to Rn.
 https://doi.org/10.1103/PhysRevB.58.3641

 Lippert, G; Hutter, J; Parrinello, M. 
 MOLECULAR PHYSICS, 92 (3), 477-487 (1997). 
 A hybrid Gaussian and plane wave density functional scheme.
 https://doi.org/10.1080/002689797170220

 Perdew, JP; Burke, K; Ernzerhof, M. 
 PHYSICAL REVIEW LETTERS, 77 (18), 3865-3868 (1996). 
 Generalized gradient approximation made simple.
 https://doi.org/10.1103/PhysRevLett.77.3865

 Goedecker, S; Teter, M; Hutter, J. 
 PHYSICAL REVIEW B, 54 (3), 1703-1710 (1996). 
 Separable dual-space Gaussian pseudopotentials.
 https://doi.org/10.1103/PhysRevB.54.1703


 -------------------------------------------------------------------------------
 -                                                                             -
 -                                T I M I N G                                  -
 -                                                                             -
 -------------------------------------------------------------------------------
 SUBROUTINE                       CALLS  ASD         SELF TIME        TOTAL TIME
                                MAXIMUM       AVERAGE  MAXIMUM  AVERAGE  MAXIMUM
 CP2K                                 1  1.0    0.030    0.040 8235.528 8235.547
 cp_geo_opt                           1  2.0    0.001    0.001 8234.074 8234.113
 geoopt_bfgs                          1  3.0    0.250    0.284 8234.073 8234.112
 cp_eval_at                          43  4.0    0.010    0.070 8205.708 8205.741
 qs_forces                           42  5.0    0.014    0.015 8155.527 8155.546
 qs_energies                         43  6.0    0.005    0.007 7710.470 7710.713
 scf_env_do_scf                      43  7.0    0.003    0.005 7394.749 7394.805
 scf_env_do_scf_inner_loop          727  8.0    0.017    0.056 5762.412 5771.441
 rebuild_ks_matrix                  769  9.8    0.004    0.004 2896.801 2898.406
 qs_ks_build_kohn_sham_matrix       769 10.8    0.112    0.123 2896.797 2898.402
 qs_ks_update_qs_env                771  9.0    0.006    0.007 2510.214 2511.702
 dbcsr_multiply_generic           10988 13.7    0.851    0.923 1998.764 2009.434
 qs_scf_new_mos                     727  9.0    0.005    0.006 1910.551 1915.322
 qs_scf_loop_do_ot                  727 10.0    0.006    0.007 1910.546 1915.315
 ot_scf_mini                        727 11.0    0.034    0.040 1779.445 1781.420
 multiply_cannon                  10988 14.7    1.162    1.333 1692.602 1722.858
 multiply_cannon_loop             10988 15.7    1.780    1.962 1635.531 1664.995
 qs_rho_update_rho                  770  9.1    0.004    0.005 1657.644 1661.281
 calculate_rho_elec                 770 10.1    3.354    3.415 1657.640 1661.276
 init_scf_loop                       44  8.0    0.002    0.003 1622.222 1622.275
 sum_up_and_integrate               427 11.7    2.072    2.150 1463.356 1463.778
 integrate_v_rspace                 427 12.7    0.017    0.020 1461.283 1461.778
 multiply_cannon_multrec         131856 16.7 1308.686 1369.943 1308.861 1370.139
 prepare_preconditioner              44  9.0    0.000    0.001 1365.500 1365.888
 make_preconditioner                 44 10.0    0.001    0.002 1320.977 1321.310
 make_full_all                       44 11.0    0.075    0.100 1281.780 1282.755
 grid_integrate_task_list           427 13.7 1255.254 1267.999 1255.254 1267.999
 grid_collocate_task_list           770 11.1 1216.259 1247.536 1216.259 1247.536
 qs_vxc_create                      769 11.8    0.016    0.021 1173.118 1173.596
 pw_transfer                      12778 13.3    1.013    1.138 1094.317 1111.692
 fft_wrap_pw1pw2                  11240 14.4    0.153    0.167 1077.790 1095.219
 fft_wrap_pw1pw2_180               6452 15.6   91.273   92.203 1041.777 1056.955
 ot_mini                            727 12.0    0.006    0.007 1047.260 1049.975
 cp_fm_syevd                        684 13.8    0.013    0.018  947.652  948.348
 cp_fm_syevd_base                   684 14.8  941.685  941.843  941.685  941.843
 xc_rho_set_and_dset_create         769 13.8    6.288    6.390  824.806  837.618
 fft3d_ps                         11240 16.4  455.285  464.105  809.171  828.107
 xc_vxc_pw_create                   427 12.7   27.587   30.406  802.064  802.543
 apply_preconditioner_dbcsr         429 14.0    0.001    0.002  605.191  609.262
 apply_all                          429 15.0    0.740    0.786  605.190  609.261
 ot_new_cg_direction                385 13.0    0.008    0.010  552.082  552.099
 qs_ot_get_derivative               385 13.0    0.006    0.017  491.522  493.276
 mp_waitall_1                    706555 17.6  402.522  465.181  402.522  465.181
 density_rs2pw                      770 11.1    0.057    0.065  421.968  440.430
 xc_functional_eval                 769 14.8    0.011    0.014  377.756  390.706
 pbe_lda_eval                       769 15.8  377.745  390.695  377.745  390.695
 qs_ks_update_qs_env_forces          42  6.0    0.000    0.000  389.363  389.558
 multiply_cannon_metrocomm3      131856 16.7    0.463    0.533  314.771  380.613
 xc_exc_calc                        342 13.0    1.447    1.462  371.038  371.051
 qs_ot_get_p                        771 11.9    0.006    0.008  310.581  314.718
 rs_pw_transfer                    6070 13.0    0.088    0.100  246.017  268.177
 init_scf_run                        43  7.0    0.002    0.003  240.241  240.247
 scf_env_initial_rho_setup           43  8.0    0.001    0.002  240.239  240.246
 wfi_extrapolate                     43  9.0    0.006    0.008  235.740  235.745
 x_to_yz                           5639 18.1  170.393  171.947  228.511  234.904
 qs_ot_get_orbitals                 727 12.0    0.005    0.008  228.713  230.453
 cp_gemm                            706 10.2    0.002    0.003  227.736  229.642
 cp_gemm_fm_gemm                    706 11.2    0.003    0.003  227.734  229.640
 cp_fm_gemm                         706 12.2  227.731  229.638  227.731  229.638
 make_m2s                         21976 14.7    0.817    0.905  225.527  227.959
 qs_ot_get_derivative_diag          254 14.0    0.009    0.010  215.771  217.054
 potential_pw2rs                    427 13.7    0.155    0.221  182.450  182.944
 qs_ot_p2m_diag                     510 13.0    5.537    5.929  174.901  175.878
 cp_fm_cholesky_reduce               44 12.0  173.172  173.612  173.172  173.612
 -------------------------------------------------------------------------------

 The number of warnings for this run is : 2
 
 -------------------------------------------------------------------------------
  **** **** ******  **  PROGRAM ENDED AT                 2022-09-04 20:06:08.709
 ***** ** ***  *** **   PROGRAM RAN ON             node1120.palmetto.clemson.edu
 **    ****   ******    PROGRAM RAN BY                                   xiutinc
 ***** **    ** ** **   PROGRAM PROCESS ID                               3888545
  **** **  *******  **  PROGRAM STOPPED IN    /scratch1/xiutinc/CP2K-97002.pbs02
