ITEM: TIMESTEP
5000000
ITEM: NUMBER OF ATOMS
4768
ITEM: BOX BOUNDS xy xz yz pp pp pp
0.0000000000000000e+00 2.4433001000000001e+01 0.0000000000000000e+00
0.0000000000000000e+00 2.4433001000000001e+01 0.0000000000000000e+00
0.0000000000000000e+00 8.7675772958794497e+01 0.0000000000000000e+00
ITEM: ATOMS id mol type q x y z
1 1 1 -0.834 9.66366 17.5526 66.9782
2 1 1 -0.834 5.84289 3.24077 6.75137
3 1 1 -0.834 11.5459 7.91151 5.67074
4 1 1 -0.834 17.1939 14.387 64.5551
5 1 1 -0.834 19.055 4.67896 55.4859
6 1 1 -0.834 5.87066 4.85571 57.1708
7 1 1 -0.834 17.9479 23.0045 68.889
8 1 1 -0.834 11.996 15.6808 60.9596
9 1 1 -0.834 21.7651 8.74207 40.709
10 1 1 -0.834 8.88585 9.05061 7.38878
11 1 1 -0.834 7.17277 1.85007 60.5809
12 1 1 -0.834 3.87642 15.5863 54.5403
13 1 1 -0.834 1.13671 20.3614 75.932
14 1 1 -0.834 15.8321 4.39729 58.4611
15 1 1 -0.834 0.234053 17.6849 78.1943
16 1 1 -0.834 14.5558 16.3384 30.1656
17 1 1 -0.834 22.4208 20.8545 65.8112
18 1 1 -0.834 4.37001 6.04145 52.9908
19 1 1 -0.834 11.7476 4.07231 23.7791
20 1 1 -0.834 19.041 1.34417 84.8115
21 1 1 -0.834 9.45903 0.336066 40.8689
22 1 1 -0.834 5.0987 9.0746 62.391
23 1 1 -0.834 16.9959 23.0383 25.2042
24 1 1 -0.834 10.968 10.4581 76.9689
25 1 1 -0.834 2.65458 14.5495 62.7933
26 1 1 -0.834 19.9593 23.29 86.3781
27 1 1 -0.834 4.29373 13.8862 56.6931
28 1 1 -0.834 2.31589 8.52091 58.011
29 1 1 -0.834 13.7909 10.9713 76.8117
30 1 1 -0.834 17.2588 8.07684 18.4057
31 1 1 -0.834 20.1413 10.3434 81.9978
32 1 1 -0.834 2.58069 1.78268 76.6115
33 1 1 -0.834 10.9357 22.4923 52.0377
34 1 1 -0.834 15.034 23.8663 22.7917
35 1 1 -0.834 22.7069 4.23162 53.454
36 1 1 -0.834 23.4496 14.9424 68.5047
37 1 1 -0.834 0.725324 13.7691 52.9363
38 1 1 -0.834 20.3934 9.40405 35.8939
39 1 1 -0.834 7.56153 24.37 76.6072
40 1 1 -0.834 15.9322 18.5701 34.9518
41 1 1 -0.834 0.625035 9.71147 56.4693
42 1 1 -0.834 12.4859 2.10088 57.0804
43 1 1 -0.834 4.00048 24.0932 45.5695
44 1 1 -0.834 10.4541 12.4376 5.08667
45 1 1 -0.834 2.05702 12.9155 67.0605
46 1 1 -0.834 6.47317 12.7893 55.6659
47 1 1 -0.834 9.43947 4.26151 65.234
48 1 1 -0.834 23.3275 8.19255 11.9945
49 1 1 -0.834 22.6171 16.6493 43.8737
50 1 1 -0.834 0.871321 14.7223 42.4604
51 1 1 -0.834 16.1469 3.1048 69.6144
52 1 1 -0.834 17.264 22.8517 86.9431
53 1 1 -0.834 7.14744 16.0427 68.6636
54 1 1 -0.834 12.3616 2.80873 43.4859
55 1 1 -0.834 24.1328 23.2763 66.8038
56 1 1 -0.834 16.5127 2.54162 64.4326
57 1 1 -0.834 7.44385 15.5902 82.658
58 1 1 -0.834 23.9048 7.62519 15.9435
59 1 1 -0.834 7.7352 22.4202 70.7188
60 1 1 -0.834 17.7568 11.3618 53.1301
61 1 1 -0.834 7.43482 23.1582 53.2208
62 1 1 -0.834 14.271 13.6373 46.2889
63 1 1 -0.834 4.80831 15.8323 82.163
64 1 1 -0.834 23.1179 6.93652 68.6863
65 1 1 -0.834 12.0959 6.82973 76.4565
66 1 1 -0.834 13.0959 17.4657 64.1928
67 1 1 -0.834 5.23546 0.125322 71.1322
68 1 1 -0.834 10.54 2.59333 21.5923
69 1 1 -0.834 0.657938 22.3882 30.7204
70 1 1 -0.834 15.8204 9.75519 41.6948
71 1 1 -0.834 21.004 21.9418 50.5959
72 1 1 -0.834 16.5858 18.1289 76.0902
73 1 1 -0.834 8.83649 5.86309 59.0259
74 1 1 -0.834 9.62199 17.0132 59.3507
75 1 1 -0.834 8.12607 9.58904 31.5009
76 1 1 -0.834 1.02084 6.20365 67.1252
77 1 1 -0.834 22.7147 0.327319 43.7009
78 1 1 -0.834 11.1996 13.1385 70.0633
79 1 1 -0.834 23.8593 23.1681 46.4135
80 1 1 -0.834 19.5782 14.4046 71.3236
81 1 1 -0.834 12.197 9.43472 26.2355
82 1 1 -0.834 11.4205 8.28864 48.4355
83 1 1 -0.834 18.0662 17.8439 11.1904
84 1 1 -0.834 21.4257 10.8697 11.3596
85 1 1 -0.834 17.2003 23.4217 43.6267
86 1 1 -0.834 19.4423 21.5274 4.34599
87 1 1 -0.834 12.0397 17.6017 38.2226
88 1 1 -0.834 9.27883 0.0411542 71.679
89 1 1 -0.834 16.9834 22.0097 79.3108
90 1 1 -0.834 13.1652 2.98861 68.5664
91 1 1 -0.834 9.31016 2.34259 50.1503
92 1 1 -0.834 4.67584 2.82837 70.282
93 1 1 -0.834 7.82096 11.8238 26.0568
94 1 1 -0.834 9.31794 19.1456 43.2077
95 1 1 -0.834 2.36568 2.13819 33.8313
96 1 1 -0.834 5.92177 2.76238 80.9536
97 1 1 -0.834 16.4589 8.87034 15.3531
98 1 1 -0.834 2.00193 3.25597 59.752
99 1 1 -0.834 18.8962 17.7349 32.2274
100 1 1 -0.834 21.0657 23.8219 3.89835
101 1 1 -0.834 6.21289 22.2233 57.0143
102 1 1 -0.834 19.4511 11.8983 55.5494
103 1 1 -0.834 5.68528 0.31268 51.7005
104 1 1 -0.834 10.891 12.9045 80.256
105 1 1 -0.834 19.3845 12.7665 10.294
106 1 1 -0.834 4.70449 6.79792 67.7827
107 1 1 -0.834 4.9798 21.8575 70.9981
108 1 1 -0.834 6.6375 24.2597 47.1115
109 1 1 -0.834 23.2554 13.5423 41.056
110 1 1 -0.834 17.6715 8.02027 42.2382
111 1 1 -0.834 12.7155 2.50389 81.1351
112 1 1 -0.834 7.96013 2.22411 63.4557
113 1 1 -0.834 15.879 3.22918 51.3526
114 1 1 -0.834 13.0991 7.09191 27.717
115 1 1 -0.834 22.1416 23.1591 75.6825
116 1 1 -0.834 19.734 13.2112 67.0908
117 1 1 -0.834 3.8627 21.6301 47.4131
118 1 1 -0.834 4.19438 6.74378 31.9994
119 1 1 -0.834 17.0932 18.7295 55.8113
120 1 1 -0.834 21.5578 1.75169 62.5024
121 1 1 -0.834 9.3705 14.0046 27.0632
122 1 1 -0.834 12.1559 11.4644 59.7531
123 1 1 -0.834 18.5224 8.86735 59.097
124 1 1 -0.834 18.862 11.5066 50.5702
125 1 1 -0.834 14.3262 21.5373 55.6094
126 1 1 -0.834 13.4053 21.8579 45.0284
127 1 1 -0.834 13.6147 1.9576 23.9101
128 1 1 -0.834 5.34164 8.42255 79.3785
129 1 1 -0.834 20.857 4.48302 14.7736
130 1 1 -0.834 2.60408 10.3258 69.3106
131 1 1 -0.834 21.7556 6.08227 16.7075
132 1 1 -0.834 11.2791 9.69662 69.6997
133 1 1 -0.834 17.8381 3.62466 23.1799
134 1 1 -0.834 0.307744 5.74817 58.8717
135 1 1 -0.834 1.79815 13.4359 75.1999
136 1 1 -0.834 24.2738 18.4681 68.6348
137 1 1 -0.834 17.3746 13.5864 31.0486
138 1 1 -0.834 1.07958 13.6511 24.1778
139 1 1 -0.834 0.452723 12.5207 56.9964
140 1 1 -0.834 22.1586 1.81842 2.33092
141 1 1 -0.834 12.3135 11.1386 49.3785
142 1 1 -0.834 20.0657 5.24249 66.6865
143 1 1 -0.834 22.5255 21.8525 28.7161
144 1 1 -0.834 7.94338 8.14255 68.1535
145 1 1 -0.834 23.5497 16.0955 75.3466
146 1 1 -0.834 0.822292 11.8489 83.8544
147 1 1 -0.834 22.3774 0.35141 64.9461
148 1 1 -0.834 19.7524 17.0577 43.5183
149 1 1 -0.834 9.31141 21.0215 14.0732
150 1 1 -0.834 10.4211 23.3852 82.9799
151 1 1 -0.834 7.74678 9.88554 63.8099
152 1 1 -0.834 2.78854 23.8432 54.3008
153 1 1 -0.834 19.7862 7.14326 62.8898
154 1 1 -0.834 10.7124 8.64475 40.3045
155 1 1 -0.834 13.2762 13.7961 4.87181
156 1 1 -0.834 8.72378 11.7245 43.021
157 1 1 -0.834 20.0809 15.5047 33.0809
158 1 1 -0.834 15.8981 16.3389 79.5463
159 1 1 -0.834 8.57093 21.6331 78.6523
160 1 1 -0.834 15.165 15.1151 56.072
161 1 1 -0.834 20.8238 10.6282 65.7828
162 1 1 -0.834 6.30298 10.876 76.6508
163 1 1 -0.834 20.5084 5.51057 77.6061
164 1 1 -0.834 23.9502 7.4357 49.6614
165 1 1 -0.834 3.93196 7.42031 73.8488
166 1 1 -0.834 18.4981 10.8343 72.2445
167 1 1 -0.834 2.7403 8.72008 42.2846
168 1 1 -0.834 12.1976 13.8498 49.5462
169 1 1 -0.834 8.14312 22.6353 59.5856
170 1 1 -0.834 20.174 10.728 74.5214
171 1 1 -0.834 22.6346 17.9215 53.1231
172 1 1 -0.834 0.0255216 13.6456 81.8317
173 1 1 -0.834 7.07923 9.90556 48.6493
174 1 1 -0.834 19.1536 3.67005 73.8033
175 1 1 -0.834 15.0779 0.824179 72.8446
176 1 1 -0.834 10.4735 7.41279 28.8623
177 1 1 -0.834 8.55716 9.4986 2.22381
178 1 1 -0.834 23.7175 13.8956 71.2232
179 1 1 -0.834 15.9589 9.4651 52.2722
180 1 1 -0.834 20.0334 17.4642 74.2449
181 1 1 -0.834 23.9968 9.92894 78.7584
182 1 1 -0.834 20.2199 3.12677 21.1644
183 1 1 -0.834 18.4832 18.2611 60.8662
184 1 1 -0.834 16.9798 4.9098 78.2793
185 1 1 -0.834 10.7297 4.46093 79.6289
186 1 1 -0.834 23.4758 1.69715 6.37678
187 1 1 -0.834 4.66987 13.8477 67.3058
188 1 1 -0.834 2.51748 20.7467 73.1295
189 1 1 -0.834 5.50761 17.8769 50.2224
190 1 1 -0.834 17.5253 21.8521 45.82
191 1 1 -0.834 14.7972 20.1374 75.9203
192 1 1 -0.834 4.69411 13.5258 85.2676
193 1 1 -0.834 2.47281 9.38384 50.7719
194 1 1 -0.834 24.3962 18.1054 86.6434
195 1 1 -0.834 3.99582 12.8348 20.6095
196 1 1 -0.834 14.1526 22.711 79.8026
197 1 1 -0.834 1.01946 6.16653 14.2376
198 1 1 -0.834 8.58169 20.3725 40.5998
199 1 1 -0.834 19.7803 13.3905 74.5719
200 1 1 -0.834 17.8269 15.9471 72.8837
201 1 1 -0.834 6.92301 18.8341 68.8461
202 1 1 -0.834 18.0825 0.0411813 81.0292
203 1 1 -0.834 13.2624 21.1357 67.6162
204 1 1 -0.834 17.5549 0.319875 65.7274
205 1 1 -0.834 11.9347 1.70416 17.0685
206 1 1 -0.834 2.26956 7.03964 33.8979
207 1 1 -0.834 6.98493 19.4173 52.1074
208 1 1 -0.834 21.7645 15.4087 73.3411
209 1 1 -0.834 21.2558 10.4516 78.3312
210 1 1 -0.834 16.709 19.1217 78.9441
211 1 1 -0.834 12.7558 17.2781 13.7951
212 1 1 -0.834 10.9668 20.5455 45.2429
213 1 1 -0.834 21.061 17.2954 27.1009
214 1 1 -0.834 4.45365 11.2191 52.4697
215 1 1 -0.834 2.76551 0.965501 69.0276
216 1 1 -0.834 23.0793 4.98404 13.1735
217 1 1 -0.834 1.54944 22.5608 43.6858
218 1 1 -0.834 0.854603 15.8701 18.8924
219 1 1 -0.834 5.80553 1.84711 31.1143
220 1 1 -0.834 2.11979 15.6214 51.4623
221 1 1 -0.834 5.19581 5.55747 8.89935
222 1 1 -0.834 18.2167 11.3604 14.7587
223 1 1 -0.834 13.531 21.5602 15.8418
224 1 1 -0.834 12.1604 13.9378 52.3137
225 1 1 -0.834 3.40321 18.3198 86.7338
226 1 1 -0.834 4.8877 5.08406 79.8917
227 1 1 -0.834 8.03505 5.73051 73.8636
228 1 1 -0.834 6.35403 20.7191 36.9425
229 1 1 -0.834 1.62085 5.16124 49.5898
230 1 1 -0.834 2.90343 8.6649 66.9136
231 1 1 -0.834 19.7976 10.3656 18.7732
232 1 1 -0.834 15.7228 14.0724 72.431
233 1 1 -0.834 23.0114 6.92556 77.9593
234 1 1 -0.834 16.1244 15.9399 53.461
235 1 1 -0.834 7.24912 6.85952 77.5437
236 1 1 -0.834 16.6264 21.6281 3.60662
237 1 1 -0.834 16.7514 18.3621 67.8995
238 1 1 -0.834 2.309 0.404667 5.56497
239 1 1 -0.834 5.14318 24.3982 14.4277
240 1 1 -0.834 14.0764 14.7934 66.2959
241 1 1 -0.834 11.0208 24.1487 76.0204
242 1 1 -0.834 23.1047 8.60765 19.3497
243 1 1 -0.834 11.0765 11.896 55.5125
244 1 1 -0.834 4.18879 14.0501 73.6338
245 1 1 -0.834 8.44715 14.0203 70.0124
246 1 1 -0.834 0.357612 22.6362 5.5993
247 1 1 -0.834 5.45825 23.5081 78.3978
248 1 1 -0.834 24.1698 5.98699 38.7254
249 1 1 -0.834 18.2734 7.84874 13.2582
250 1 1 -0.834 16.7643 6.99247 82.6924
251 1 1 -0.834 18.2061 8.56434 67.9657
252 1 1 -0.834 1.87325 22.9903 60.8897
253 1 1 -0.834 19.0705 16.654 55.0733
254 1 1 -0.834 11.3946 20.8799 58.0587
255 1 1 -0.834 9.18446 10.1888 50.4721
256 1 1 -0.834 15.4634 12.0081 59.7566
257 1 1 -0.834 22.3124 16.4322 79.4989
258 1 1 -0.834 17.0562 3.03775 80.683
259 1 1 -0.834 22.3631 10.7662 52.2262
260 1 1 -0.834 15.0005 19.39 54.1446
261 1 1 -0.834 7.08225 10.3398 56.8584
262 1 1 -0.834 3.44534 14.7322 17.4821
263 1 1 -0.834 8.73519 20.8945 47.1565
264 1 1 -0.834 21.811 8.24128 14.3382
265 1 1 -0.834 1.5595 18.6913 26.0094
266 1 1 -0.834 19.5396 19.4244 2.26806
267 1 1 -0.834 13.2213 13.2342 72.0202
268 1 1 -0.834 17.0703 2.31988 17.3034
269 1 1 -0.834 17.9174 16.4924 34.6727
270 1 1 -0.834 11.6646 23.5616 15.8783
271 1 1 -0.834 5.23521 12.4158 1.03785
272 1 1 -0.834 15.0822 19.6204 57.3933
273 1 1 -0.834 6.94424 12.357 53.0381
274 1 1 -0.834 13.2807 13.8073 11.6259
275 1 1 -0.834 11.4625 7.25419 73.779
276 1 1 -0.834 7.55062 14.39 59.7547
277 1 1 -0.834 1.42863 16.9543 70.3862
278 1 1 -0.834 7.38431 1.98475 8.72714
279 1 1 -0.834 15.0193 20.1114 50.1749
280 1 1 -0.834 1.05229 15.2371 55.5613
281 1 1 -0.834 8.36768 9.79473 60.0535
282 1 1 -0.834 15.1954 21.1376 42.9582
283 1 1 -0.834 15.8189 22.631 75.3333
284 1 1 -0.834 22.6034 13.1266 43.8454
285 1 1 -0.834 2.00462 0.344792 72.6669
286 1 1 -0.834 20.4364 2.14767 59.6527
287 1 1 -0.834 15.1124 23.4849 49.7768
288 1 1 -0.834 10.893 4.93193 69.5747
289 1 1 -0.834 3.59433 5.75865 47.5881
290 1 1 -0.834 20.2965 18.0396 58.9996
291 1 1 -0.834 12.4512 3.27973 61.7234
292 1 1 -0.834 14.4683 7.44825 20.4316
293 1 1 -0.834 12.4131 7.44201 51.8899
294 1 1 -0.834 15.2714 13.8656 29.382
295 1 1 -0.834 18.5667 8.52356 49.7607
296 1 1 -0.834 12.184 20.1686 13.6517
297 1 1 -0.834 4.2667 7.26354 50.3651
298 1 1 -0.834 10.1216 22.4209 65.2685
299 1 1 -0.834 4.12773 10.8239 43.8142
300 1 1 -0.834 10.7744 17.7266 35.8637
301 1 1 -0.834 9.87467 1.3444 77.9679
302 1 1 -0.834 21.3016 4.34382 39.784
303 1 1 -0.834 23.0167 3.89113 63.0886
304 1 1 -0.834 13.3422 0.233285 69.6351
305 1 1 -0.834 16.3148 5.96542 63.8081
306 1 1 -0.834 8.44189 23.4111 68.0043
307 1 1 -0.834 12.1371 18.3585 59.1552
308 1 1 -0.834 5.43313 8.32267 4.48899
309 1 1 -0.834 4.78624 14.67 64.3745
310 1 1 -0.834 23.1527 11.3836 16.0156
311 1 1 -0.834 16.3663 4.31317 45.7056
312 1 1 -0.834 7.85878 16.9922 78.1831
313 1 1 -0.834 24.3915 0.132945 62.5439
314 1 1 -0.834 12.8128 22.194 40.3094
315 1 1 -0.834 11.0175 23.5542 19.7449
316 1 1 -0.834 3.32347 10.6201 85.325
317 1 1 -0.834 6.97804 20.978 54.7575
318 1 1 -0.834 12.652 2.83698 46.8351
319 1 1 -0.834 11.078 20.9943 76.5754
320 1 1 -0.834 0.657719 20.6 28.3942
321 1 1 -0.834 22.4594 6.18436 46.3842
322 1 1 -0.834 10.85 15.0637 72.6329
323 1 1 -0.834 1.68615 16.4762 48.4868
324 1 1 -0.834 0.219968 23.7896 74.4142
325 1 1 -0.834 3.01449 4.13454 77.8727
326 1 1 -0.834 8.39273 12.3452 58.1123
327 1 1 -0.834 8.41035 15.9046 73.5288
328 1 1 -0.834 20.4185 19.4587 52.1842
329 1 1 -0.834 0.179683 23.2494 49.5547
330 1 1 -0.834 11.816 16.7448 70.7624
331 1 1 -0.834 14.0912 22.6497 73.3342
332 1 1 -0.834 24.0386 21.0138 25.8843
333 1 1 -0.834 14.3458 4.57198 48.3865
334 1 1 -0.834 9.17291 24.3842 17.8657
335 1 1 -0.834 7.9209 12.3029 47.3895
336 1 1 -0.834 22.3158 11.9184 82.5572
337 1 1 -0.834 21.3495 11.4529 41.3103
338 1 1 -0.834 8.59366 2.61866 41.7843
339 1 1 -0.834 20.6824 2.84636 56.8765
340 1 1 -0.834 11.2254 14.3906 31.7687
341 1 1 -0.834 21.7137 8.29513 59.789
342 1 1 -0.834 8.60274 20.9209 75.178
343 1 1 -0.834 23.8006 5.82194 80.478
344 1 1 -0.834 9.99038 8.09307 52.8564
345 1 1 -0.834 8.93658 12.4473 76.5294
346 1 1 -0.834 0.611109 3.59398 81.5835
347 1 1 -0.834 14.3163 1.8496 59.6268
348 1 1 -0.834 7.37317 4.7336 43.6588
349 1 1 -0.834 12.238 5.62541 2.40996
350 1 1 -0.834 23.6268 12.5051 76.8661
351 1 1 -0.834 1.49025 15.6672 67.7938
352 1 1 -0.834 7.33227 17.5842 63.8706
353 1 1 -0.834 8.05413 21.0092 66.3021
354 1 1 -0.834 24.4227 10.3937 43.0702
355 1 1 -0.834 21.4227 1.22862 73.7438
356 1 1 -0.834 6.11346 2.14023 75.7099
357 1 1 -0.834 14.6198 12.4034 55.9602
358 1 1 -0.834 6.3228 8.9991 73.4636
359 1 1 -0.834 7.76308 14.019 43.8263
360 1 1 -0.834 16.1665 3.40053 73.0805
361 1 1 -0.834 21.7028 0.0223978 48.7188
362 1 1 -0.834 12.5697 18.8619 76.7663
363 1 1 -0.834 15.908 5.58602 42.7139
364 1 1 -0.834 17.1019 20.2059 71.3902
365 1 1 -0.834 6.52965 23.8898 43.5277
366 1 1 -0.834 22.935 3.50455 78.3863
367 1 1 -0.834 22.7052 12.287 73.8808
368 1 1 -0.834 22.9758 23.4618 51.8046
369 1 1 -0.834 9.69637 6.25874 71.8655
370 1 1 -0.834 5.87072 12.2544 50.5177
371 1 1 -0.834 14.9328 6.80888 46.7146
372 1 1 -0.834 7.84907 24.3658 36.3587
373 1 1 -0.834 4.60547 14.4043 51.8615
374 1 1 -0.834 20.7937 16.0824 57.0892
375 1 1 -0.834 5.29847 1.30875 35.852
376 1 1 -0.834 10.6783 14.1854 67.2786
377 1 1 -0.834 7.43307 5.43872 68.1661
378 1 1 -0.834 15.7517 9.13915 59.1513
379 1 1 -0.834 22.6209 8.09819 43.2418
380 1 1 -0.834 10.5237 4.31163 48.3258
381 1 1 -0.834 3.08006 1.73154 47.2156
382 1 1 -0.834 6.19839 20.5848 76.1139
383 1 1 -0.834 4.56965 24.2315 48.9254
384 1 1 -0.834 13.4078 16.1054 32.6686
385 1 1 -0.834 14.8035 18.5688 73.1434
386 1 1 -0.834 2.67327 23.588 51.3006
387 1 1 -0.834 16.7197 12.0059 10.6558
388 1 1 -0.834 20.9013 21.8174 78.9767
389 1 1 -0.834 19.3014 22.6173 61.9866
390 1 1 -0.834 22.9885 22.6188 56.7677
391 1 1 -0.834 0.755247 5.45206 76.0293
392 1 1 -0.834 18.558 24.1167 75.6728
393 1 1 -0.834 20.3173 9.35174 53.4189
394 1 1 -0.834 18.771 2.22123 61.9656
395 1 1 -0.834 23.2083 14.8255 85.2019
396 1 1 -0.834 21.5228 23.6425 6.53647
397 1 1 -0.834 17.9058 0.884792 19.3411
398 1 1 -0.834 19.8372 6.52452 75.0649
399 1 1 -0.834 19.0769 18.1896 77.2126
400 1 1 -0.834 13.5252 22.9952 53.2808
401 1 1 -0.834 17.6932 5.36181 17.2701
402 1 1 -0.834 13.7064 4.82886 51.4007
403 1 1 -0.834 0.427289 21.4917 68.6812
404 1 1 -0.834 4.58386 20.5742 68.756
405 1 1 -0.834 13.9543 17.774 10.8497
406 1 1 -0.834 5.63071 2.39275 13.0052
407 1 1 -0.834 1.19997 12.0658 41.1494
408 1 1 -0.834 21.6534 3.61438 46.7767
409 1 1 -0.834 21.744 8.38038 74.2758
410 1 1 -0.834 17.8848 14.3995 49.5271
411 1 1 -0.834 3.83538 22.5009 64.2691
412 1 1 -0.834 11.2186 10.859 7.13648
413 1 1 -0.834 9.41829 5.94707 46.3475
414 1 1 -0.834 14.542 4.21691 79.9336
415 1 1 -0.834 0.160056 15.171 87.424
416 1 1 -0.834 15.1206 7.70553 54.393
417 1 1 -0.834 22.4319 4.37006 75.1873
418 1 1 -0.834 0.316291 2.52806 74.9689
419 1 1 -0.834 2.13645 8.03327 48.4799
420 1 1 -0.834 12.5136 23.9765 66.7786
421 1 1 -0.834 9.44275 3.35808 67.8997
422 1 1 -0.834 14.6321 19.6991 9.01545
423 1 1 -0.834 1.71862 22.7147 70.9593
424 1 1 -0.834 11.8175 2.75629 52.1276
425 1 1 -0.834 1.68542 10.8183 65.5129
426 1 1 -0.834 10.0705 13.3732 60.3415
427 1 1 -0.834 14.7995 9.56311 47.8405
428 1 1 -0.834 5.06831 8.07752 43.6677
429 1 1 -0.834 6.89564 7.36712 32.4492
430 1 1 -0.834 21.8182 0.29676 25.845
431 1 1 -0.834 13.6955 5.78376 62.0438
432 1 1 -0.834 2.28886 4.67651 36.8712
433 1 1 -0.834 9.70031 23.8688 14.0972
434 1 1 -0.834 13.4128 10.0766 5.85439
435 1 1 -0.834 18.5444 23.4188 50.8422
436 1 1 -0.834 4.25053 6.77023 77.3123
437 1 1 -0.834 11.5794 16.1591 10.7952
438 1 1 -0.834 23.7187 16.4201 82.6246
439 1 1 -0.834 19.8229 22.4185 25.9186
440 1 1 -0.834 0.449498 14.0732 64.9018
441 1 1 -0.834 19.053 6.5242 60.3309
442 1 1 -0.834 1.83694 7.79721 69.901
443 1 1 -0.834 3.41862 3.87957 13.693
444 1 1 -0.834 6.71486 13.5009 72.341
445 1 1 -0.834 2.64666 12.057 54.3676
446 1 1 -0.834 1.99696 0.813532 9.77067
447 1 1 -0.834 10.6096 10.1247 23.8935
448 1 1 -0.834 9.55666 4.48044 2.35776
449 1 1 -0.834 17.9719 9.50887 62.0262
450 1 1 -0.834 18.5738 19.8067 64.7901
451 1 1 -0.834 6.26336 5.16748 65.021
452 1 1 -0.834 1.91431 5.12207 70.7004
453 1 1 -0.834 16.241 7.58718 77.1769
454 1 1 -0.834 9.58408 18.2225 74.7845
455 1 1 -0.834 14.284 15.7698 70.5119
456 1 1 -0.834 17.9753 14.6258 81.0963
457 1 1 -0.834 0.06943 8.6342 64.7069
458 1 1 -0.834 12.7366 19.5894 69.7216
459 1 1 -0.834 8.71627 21.9659 19.9062
460 1 1 -0.834 4.72829 11.6256 59.4408
461 1 1 -0.834 9.87427 17.7661 39.7115
462 1 1 -0.834 0.0447173 3.16882 50.1137
463 1 1 -0.834 15.1258 6.01198 72.6063
464 1 1 -0.834 1.91564 7.51377 36.6694
465 1 1 -0.834 10.6191 10.1421 0.117059
466 1 1 -0.834 4.19551 19.4347 44.0295
467 1 1 -0.834 15.1273 1.73372 0.422783
468 1 1 -0.834 6.60213 19.1535 60.6941
469 1 1 -0.834 11.8212 7.76563 67.2417
470 1 1 -0.834 18.5284 11.8318 79.6773
471 1 1 -0.834 17.3552 14.947 6.20949
472 1 1 -0.834 16.9904 15.1336 11.785
473 1 1 -0.834 17.2648 8.8647 70.4676
474 1 1 -0.834 21.457 12.6345 61.9984
475 1 1 -0.834 2.28146 1.19734 12.673
476 1 1 -0.834 6.92251 14.4429 75.684
477 1 1 -0.834 1.81979 1.42991 66.2079
478 1 1 -0.834 5.10315 4.06705 72.7511
479 1 1 -0.834 15.7766 11.8145 64.5084
480 1 1 -0.834 18.6351 15.4848 76.0069
481 1 1 -0.834 18.5289 2.54147 87.1842
482 1 1 -0.834 20.6576 7.37979 19.006
483 1 1 -0.834 5.50503 0.2052 9.78325
484 1 1 -0.834 10.0956 21.2871 71.4472
485 1 1 -0.834 17.6603 10.9009 66.79
486 1 1 -0.834 14.2811 14.4189 62.6164
487 1 1 -0.834 13.3562 10.0043 51.6148
488 1 1 -0.834 7.44675 11.455 74.0352
489 1 1 -0.834 16.2072 12.2204 80.9123
490 1 1 -0.834 11.7296 18.4798 53.1394
491 1 1 -0.834 22.7116 23.512 72.363
492 1 1 -0.834 18.5075 15.2368 68.5774
493 1 1 -0.834 3.57039 14.4667 24.6564
494 1 1 -0.834 17.6199 20.4929 74.2223
495 1 1 -0.834 18.8215 4.23603 69.7126
496 1 1 -0.834 7.56541 11.3998 23.3281
497 1 1 -0.834 2.27051 12.7705 43.8542
498 1 1 -0.834 10.5043 0.382454 62.1739
499 1 1 -0.834 19.8994 9.43832 56.6602
500 1 1 -0.834 19.8965 6.58908 71.5168
501 1 1 -0.834 3.95911 17.6306 47.8087
502 1 1 -0.834 10.0344 5.5168 25.5634
503 1 1 -0.834 0.31587 1.44645 70.7781
504 1 1 -0.834 0.22483 8.29655 46.603
505 1 1 -0.834 12.805 12.4649 30.4087
506 1 1 -0.834 11.1031 15.7047 78.5181
507 1 1 -0.834 19.1954 22.3866 41.8289
508 1 1 -0.834 3.69643 1.51127 7.78075
509 1 1 -0.834 17.6243 5.4406 52.0032
510 1 1 -0.834 2.87693 2.19171 38.0443
511 1 1 -0.834 1.25329 4.11007 65.1264
512 1 1 -0.834 15.053 2.32959 82.6342
513 1 1 -0.834 20.7873 20.8748 87.4811
514 1 1 -0.834 23.8307 16.2579 59.7759
515 1 1 -0.834 0.907389 1.06213 51.7971
516 1 1 -0.834 14.1258 16.1587 47.2557
517 1 1 -0.834 9.40728 18.8928 79.699
518 1 1 -0.834 3.01948 2.87722 44.5147
519 1 1 -0.834 18.0608 17.3552 65.4593
520 1 1 -0.834 13.4153 2.09953 65.8592
521 1 1 -0.834 12.496 17.2043 67.2037
522 1 1 -0.834 23.0063 15.6281 62.7009
523 1 1 -0.834 10.9754 8.21919 2.89269
524 1 1 -0.834 13.5319 19.009 61.66
525 1 1 -0.834 18.8676 1.35781 25.2807
526 1 1 -0.834 4.81583 22.957 11.9937
527 1 1 -0.834 19.5565 12.8929 64.2183
528 1 1 -0.834 7.84414 14.612 79.5544
529 1 1 -0.834 2.53238 23.596 75.9204
530 1 1 -0.834 13.2843 16.2516 53.1314
531 1 1 -0.834 16.9932 12.3759 74.0506
532 1 1 -0.834 13.6037 7.43213 0.0433899
533 1 1 -0.834 12.5101 3.67916 54.9359
534 1 1 -0.834 10.7865 11.0297 31.7118
535 1 1 -0.834 5.28427 9.9766 65.35
536 1 1 -0.834 13.3902 6.54034 56.7679
537 1 1 -0.834 8.00177 22.9274 11.2619
538 1 1 -0.834 13.5801 13.1303 79.9895
539 1 1 -0.834 23.5256 2.31941 60.1449
540 1 1 -0.834 7.83621 4.2042 54.2241
541 1 1 -0.834 7.82558 13.1987 2.93423
542 1 1 -0.834 9.97879 11.8715 72.9181
543 1 1 -0.834 20.802 21.6172 73.7013
544 1 1 -0.834 4.60908 20.9261 79.6852
545 1 1 -0.834 9.14672 19.7623 59.7842
546 1 1 -0.834 1.03302 12.1889 62.7612
547 1 1 -0.834 5.2532 2.86943 48.8274
548 1 1 -0.834 15.496 8.69924 67.1431
549 1 1 -0.834 6.73773 11.7129 61.0959
550 1 1 -0.834 9.74141 15.783 41.5328
551 1 1 -0.834 23.8944 9.30453 75.7361
552 1 1 -0.834 21.6845 7.90996 81.8666
553 1 1 -0.834 17.7782 0.88015 48.9759
554 1 1 -0.834 19.6179 20.7827 70.2083
555 1 1 -0.834 13.0662 1.19893 50.3557
556 1 1 -0.834 1.6839 11.8564 59.266
557 1 1 -0.834 16.0594 1.5774 25.1563
558 1 1 -0.834 14.4743 10.2002 73.729
559 1 1 -0.834 15.8247 5.62376 23.5761
560 1 1 -0.834 7.68816 5.16332 79.4375
561 1 1 -0.834 4.25106 4.51268 61.0827
562 1 1 -0.834 3.01512 4.06659 4.93547
563 1 1 -0.834 20.0086 4.22961 79.9685
564 1 1 -0.834 1.06751 0.535639 36.4562
565 1 1 -0.834 7.44688 17.6775 16.6505
566 1 1 -0.834 16.3215 4.76643 84.4268
567 1 1 -0.834 22.9416 6.69002 54.7677
568 1 1 -0.834 10.5359 13.85 43.6122
569 1 1 -0.834 11.1978 2.54711 63.9715
570 1 1 -0.834 17.5997 9.19736 38.6
571 1 1 -0.834 21.6013 9.2438 71.5276
572 1 1 -0.834 22.6023 3.29913 8.59851
573 1 1 -0.834 23.4009 11.7819 37.66
574 1 1 -0.834 3.55791 21.3535 76.915
575 1 1 -0.834 21.8774 19.1522 67.6402
576 1 1 -0.834 16.7343 10.4369 45.874
577 1 1 -0.834 10.8146 20.713 62.3766
578 1 1 -0.834 4.41133 22.0789 61.7524
579 1 1 -0.834 11.2996 15.1056 34.7956
580 1 1 -0.834 19.1239 18.407 25.615
581 1 1 -0.834 12.6846 23.4124 60.0959
582 1 1 -0.834 22.621 20.8254 48.2525
583 1 1 -0.834 5.54433 10.8772 3.36336
584 1 1 -0.834 21.7704 23.5834 61.0119
585 1 1 -0.834 7.00132 9.7928 42.1769
586 1 1 -0.834 10.4677 12.1511 29.209
587 1 1 -0.834 10.3141 22.6702 39.3719
588 1 1 -0.834 22.7754 12.1784 64.5455
589 1 1 -0.834 12.461 8.00356 43.2623
590 1 1 -0.834 2.09938 10.2391 72.0378
591 1 1 -0.834 19.7011 8.0251 78.6722
592 1 1 -0.834 17.7189 3.43854 42.9861
593 1 1 -0.834 15.5019 8.72726 62.7794
594 1 1 -0.834 22.776 5.47299 72.6168
595 1 1 -0.834 14.498 17.8535 81.4375
596 1 1 -0.834 20.218 24.0667 29.5077
597 1 1 -0.834 2.35175 2.11779 79.735
598 1 1 -0.834 16.3182 22.2329 52.3044
599 1 1 -0.834 19.3056 0.479614 1.66085
600 1 1 -0.834 18.3434 7.97218 52.3898
601 1 1 -0.834 13.6237 0.736474 62.3209
602 1 1 -0.834 17.6179 12.5662 62.0196
603 1 1 -0.834 4.52401 17.4687 17.4552
604 1 1 -0.834 12.0189 22.6712 63.5351
605 1 1 -0.834 21.5805 18.3123 0.165261
606 1 1 -0.834 9.2462 12.7795 65.5293
607 1 1 -0.834 15.4261 1.01132 67.4672
608 1 1 -0.834 16.6488 17.7304 70.9033
609 1 1 -0.834 4.31136 16.4803 44.5804
610 1 1 -0.834 13.0175 9.71182 1.602
611 1 1 -0.834 12.025 18.6 42.7641
612 1 1 -0.834 6.69156 22.6643 40.8602
613 1 1 -0.834 17.8084 21.1928 67.0415
614 1 1 -0.834 13.4403 0.502125 42.1729
615 1 1 -0.834 12.127 7.5894 79.0734
616 1 1 -0.834 7.01889 24.2027 80.7371
617 1 1 -0.834 21.3856 9.48027 49.5281
618 1 1 -0.834 10.3051 10.8271 44.9994
619 1 1 -0.834 4.14801 3.37125 65.1854
620 1 1 -0.834 20.5181 22.9632 66.036
621 1 1 -0.834 13.8112 18.2616 45.2317
622 1 1 -0.834 14.7972 21.2181 59.6949
623 1 1 -0.834 17.2807 20.895 61.4201
624 1 1 -0.834 20.1599 10.8324 60.2208
625 1 1 -0.834 0.0365168 2.79738 56.6284
626 1 1 -0.834 6.49976 11.6022 45.0801
627 1 1 -0.834 2.51994 20.1219 21.0578
628 1 1 -0.834 11.3831 6.55707 59.8254
629 1 1 -0.834 9.77429 11.7441 62.4886
630 1 1 -0.834 15.8798 1.34898 43.1972
631 1 1 -0.834 12.1995 5.43234 65.5451
632 1 1 -0.834 4.21783 5.56762 29.1468
633 1 1 -0.834 19.6171 17.8471 79.9775
634 1 1 -0.834 3.06017 6.4151 55.5418
635 1 1 -0.834 14.0277 16.7215 57.7939
636 1 1 -0.834 18.3356 7.28943 65.2859
637 1 1 -0.834 3.96659 2.87079 29.1419
638 1 1 -0.834 16.5969 1.46658 21.9157
639 1 1 -0.834 16.2838 14.9083 77.2967
640 1 1 -0.834 11.3764 23.8728 49.5544
641 1 1 -0.834 1.68128 10.3739 80.4076
642 1 1 -0.834 8.54497 1.02267 44.7677
643 1 1 -0.834 14.7405 23.3075 64.0162
644 1 1 -0.834 11.4638 5.68371 84.8642
645 1 1 -0.834 13.664 23.8268 18.679
646 1 1 -0.834 24.3796 23.8506 8.18823
647 1 1 -0.834 21.0855 24.168 58.3823
648 1 1 -0.834 1.14755 22.0687 64.783
649 1 1 -0.834 15.834 7.03388 86.0701
650 1 1 -0.834 14.0224 7.67909 49.6963
651 1 1 -0.834 13.6016 14.0996 7.51558
652 1 1 -0.834 5.01419 19.6953 14.7506
653 1 1 -0.834 11.1629 22.7709 79.2773
654 1 1 -0.834 14.6433 17.2021 37.0645
655 1 1 -0.834 24.2198 9.27018 70.9589
656 1 1 -0.834 20.1444 15.2481 61.7904
657 1 1 -0.834 4.00082 17.1544 24.8052
658 1 1 -0.834 15.1632 18.9396 47.6315
659 1 1 -0.834 18.948 13.0903 46.9342
660 1 1 -0.834 10.7705 3.66186 83.3173
661 1 1 -0.834 16.8853 9.02363 74.867
662 1 1 -0.834 6.18674 1.47575 55.4879
663 1 1 -0.834 10.3693 13.6988 46.5048
664 1 1 -0.834 7.29269 17.0642 43.1456
665 1 1 -0.834 19.0173 23.2423 71.7449
666 1 1 -0.834 21.1282 0.624369 67.515
667 1 1 -0.834 15.017 10.2685 71.1105
668 1 1 -0.834 12.9347 4.08485 77.3244
669 1 1 -0.834 22.6164 5.16732 36.3554
670 1 1 -0.834 16.3446 6.61101 50.0073
671 1 1 -0.834 23.2156 12.2093 50.014
672 1 1 -0.834 2.45388 5.91246 8.28288
673 1 1 -0.834 19.9895 24.3626 52.9411
674 1 1 -0.834 9.74389 20.4301 68.4635
675 1 1 -0.834 24.3025 19.9526 23.1971
676 1 1 -0.834 6.01208 5.49945 48.7866
677 1 1 -0.834 15.7065 16.4655 7.49685
678 1 1 -0.834 0.911223 20.516 57.3408
679 1 1 -0.834 4.21384 9.85661 75.0823
680 1 1 -0.834 4.3029 21.891 52.9606
681 1 1 -0.834 19.1462 20.8716 59.2462
682 1 1 -0.834 9.20827 9.04689 79.1221
683 1 1 -0.834 7.07392 22.386 50.597
684 1 1 -0.834 3.44545 15.8892 58.506
685 1 1 -0.834 24.1307 1.42141 33.9013
686 1 1 -0.834 6.74206 21.9115 45.8777
687 1 1 -0.834 21.7731 14.9657 46.9441
688 1 1 -0.834 16.4394 18.3564 30.7914
689 1 1 -0.834 18.708 4.12151 76.3777
690 1 1 -0.834 20.521 18.5285 29.6873
691 1 1 -0.834 16.2881 12.2891 76.6507
692 1 1 -0.834 6.68317 16.7388 54.9644
693 1 1 -0.834 19.2423 5.11529 19.6957
694 1 1 -0.834 5.68941 15.8031 87.2789
695 1 1 -0.834 0.0787444 20.1654 43.2228
696 1 1 -0.834 17.0704 3.3165 54.0272
697 1 1 -0.834 14.5793 6.69042 59.4862
698 1 1 -0.834 1.11568 18.7502 45.9999
699 1 1 -0.834 21.0868 0.097487 78.6249
700 1 1 -0.834 18.7969 17.2429 4.94161
701 1 1 -0.834 1.2423 3.27951 7.09143
702 1 1 -0.834 3.07397 13.8317 60.2476
703 1 1 -0.834 14.9334 23.3369 85.5187
704 1 1 -0.834 23.6188 21.9012 62.5268
705 1 1 -0.834 6.27745 7.85544 7.26116
706 1 1 -0.834 3.54409 11.3168 56.8971
707 1 1 -0.834 13.3986 19.9692 65.2698
708 1 1 -0.834 5.66166 2.555 45.5164
709 1 1 -0.834 16.8411 23.8396 1.87985
710 1 1 -0.834 23.2078 20.4285 86.2905
711 1 1 -0.834 20.2343 19.1734 48.1871
712 1 1 -0.834 6.89855 20.3493 13.0175
713 1 1 -0.834 3.9474 17.634 67.929
714 1 1 -0.834 14.7785 6.0179 66.2397
715 1 1 -0.834 9.96043 0.541945 80.9231
716 1 1 -0.834 8.02515 12.2151 86.4272
717 1 1 -0.834 14.7411 5.03231 54.1895
718 1 1 -0.834 10.1438 17.0966 15.4291
719 1 1 -0.834 21.2364 21.581 54.0601
720 1 1 -0.834 8.32367 23.7016 63.4473
721 1 1 -0.834 13.1828 0.230867 82.9009
722 1 1 -0.834 21.9989 19.0629 42.4129
723 1 1 -0.834 2.99921 1.70326 50.0399
724 1 1 -0.834 1.68872 14.126 72.1313
725 1 1 -0.834 2.56227 3.3729 73.3653
726 1 1 -0.834 5.79357 18.9083 46.211
727 1 1 -0.834 24.2312 1.15893 54.0746
728 1 1 -0.834 15.7878 15.9306 68.1614
729 1 1 -0.834 11.8664 18.7192 80.7349
730 1 1 -0.834 12.5197 15.6325 81.1068
731 1 1 -0.834 7.50714 19.6856 18.6592
732 1 1 -0.834 23.6633 11.5869 69.7246
733 1 1 -0.834 2.69201 14.2683 82.3874
734 1 1 -0.834 10.0538 17.4928 48.9556
735 1 1 -0.834 23.141 17.027 55.8043
736 1 1 -0.834 13.3421 5.50498 43.7882
737 1 1 -0.834 11.3151 23.2307 73.2165
738 1 1 -0.834 3.41376 9.6531 46.2407
739 1 1 -0.834 0.134849 18.3558 49.6613
740 1 1 -0.834 9.00815 21.1179 82.038
741 1 1 -0.834 17.5921 6.97376 73.2139
742 1 1 -0.834 21.8756 1.00372 46.1781
743 1 1 -0.834 16.3172 2.13256 85.506
744 1 1 -0.834 1.12536 7.15139 10.6061
745 1 1 -0.834 1.15009 16.7557 73.1662
746 1 1 -0.834 4.11789 24.2239 66.9601
747 1 1 -0.834 6.57851 10.3726 70.716
748 1 1 -0.834 4.44086 19.811 18.7505
749 1 1 -0.834 6.46445 15.4087 48.5238
750 1 1 -0.834 21.9461 18.4197 4.84418
751 1 1 -0.834 1.18688 9.92043 38.6664
752 1 1 -0.834 7.29379 12.9736 67.7916
753 1 1 -0.834 24.3376 6.02272 43.7704
754 1 1 -0.834 4.22862 21.9973 15.7936
755 1 1 -0.834 5.42652 4.26222 32.2316
756 1 1 -0.834 8.87998 9.14845 73.1755
757 1 1 -0.834 12.7647 12.361 9.48723
758 1 1 -0.834 24.3248 23.9573 59.1401
759 1 1 -0.834 1.93649 2.66355 62.7407
760 1 1 -0.834 21.5648 21.1932 22.4887
761 1 1 -0.834 13.8599 4.76502 22.0592
762 1 1 -0.834 2.72063 17.4549 61.0053
763 1 1 -0.834 9.98032 0.544661 52.5793
764 1 1 -0.834 0.535775 10.9485 48.1218
765 1 1 -0.834 1.17829 16.8698 63.2278
766 1 1 -0.834 21.267 15.8807 69.5609
767 1 1 -0.834 9.49892 4.21506 76.8796
768 1 1 -0.834 4.31165 17.0555 41.8012