ITEM: TIMESTEP
1000000
ITEM: NUMBER OF ATOMS
4768
ITEM: BOX BOUNDS xy xz yz pp pp pp
0.0000000000000000e+00 2.4433001000000001e+01 0.0000000000000000e+00
0.0000000000000000e+00 2.4433001000000001e+01 0.0000000000000000e+00
0.0000000000000000e+00 8.7675772958794497e+01 0.0000000000000000e+00
ITEM: ATOMS id mol type q x y z
1 1 1 -0.834 18.8366 23.7511 57.6159
2 1 1 -0.834 7.73445 11.1588 87.0883
3 1 1 -0.834 17.7607 12.9186 65.6428
4 1 1 -0.834 22.202 20.7999 7.46439
5 1 1 -0.834 6.86531 6.26401 54.8234
6 1 1 -0.834 15.0447 13.8641 48.8392
7 1 1 -0.834 22.5703 0.698334 79.4083
8 1 1 -0.834 3.18126 13.5999 45.6203
9 1 1 -0.834 2.02805 20.4884 71.5692
10 1 1 -0.834 6.57427 9.93359 68.672
11 1 1 -0.834 5.37727 8.15736 67.0402
12 1 1 -0.834 16.5384 2.30338 80.0236
13 1 1 -0.834 18.9981 17.5931 28.1775
14 1 1 -0.834 18.1684 5.9257 49.1411
15 1 1 -0.834 17.8206 6.84302 53.1469
16 1 1 -0.834 20.5065 6.75233 18.6574
17 1 1 -0.834 19.7859 10.0321 51.6637
18 1 1 -0.834 9.79862 9.70858 86.1177
19 1 1 -0.834 20.7825 16.0459 75.9522
20 1 1 -0.834 13.5559 1.59681 65.0248
21 1 1 -0.834 23.7169 2.70045 60.7604
22 1 1 -0.834 6.47138 0.458374 33.5354
23 1 1 -0.834 16.7853 24.2234 82.0573
24 1 1 -0.834 5.59541 6.34667 47.0988
25 1 1 -0.834 11.0601 6.01244 57.8688
26 1 1 -0.834 5.46097 14.5296 54.2083
27 1 1 -0.834 11.988 14.3397 53.698
28 1 1 -0.834 2.92639 8.30347 63.3364
29 1 1 -0.834 20.9701 4.85011 68.438
30 1 1 -0.834 4.4258 13.5427 43.0893
31 1 1 -0.834 5.7517 12.2349 80.6719
32 1 1 -0.834 21.5103 10.0085 41.9116
33 1 1 -0.834 2.28952 6.00895 49.3591
34 1 1 -0.834 18.9222 9.62324 17.9465
35 1 1 -0.834 11.5721 9.22451 68.8714
36 1 1 -0.834 4.50582 9.67447 71.0983
37 1 1 -0.834 16.5263 1.77192 65.962
38 1 1 -0.834 22.9161 9.78765 75.2447
39 1 1 -0.834 3.26918 19.2075 76.8508
40 1 1 -0.834 3.23335 11.8434 23.0807
41 1 1 -0.834 8.87163 18.9067 67.6999
42 1 1 -0.834 18.3826 11.484 76.3438
43 1 1 -0.834 8.45375 4.3851 70.7484
44 1 1 -0.834 8.50204 23.2656 81.7641
45 1 1 -0.834 16.3673 17.6259 45.2454
46 1 1 -0.834 23.9662 5.11314 8.68203
47 1 1 -0.834 16.1249 5.19158 0.0695095
48 1 1 -0.834 12.347 12.8442 80.6501
49 1 1 -0.834 0.526711 8.56984 68.4525
50 1 1 -0.834 13.9021 24.1247 17.382
51 1 1 -0.834 16.1189 22.5865 74.1661
52 1 1 -0.834 11.8154 8.45798 73.1376
53 1 1 -0.834 19.657 20.3061 31.5222
54 1 1 -0.834 2.73246 8.51716 46.6359
55 1 1 -0.834 21.5355 9.44992 15.9932
56 1 1 -0.834 22.6339 17.4666 53.3005
57 1 1 -0.834 11.5985 13.921 7.41428
58 1 1 -0.834 23.8757 5.7906 52.5365
59 1 1 -0.834 22.4536 21.6317 57.0903
60 1 1 -0.834 24.1181 18.7937 68.7826
61 1 1 -0.834 18.791 24.3132 74.2157
62 1 1 -0.834 15.8193 18.2898 30.783
63 1 1 -0.834 12.1779 22.1811 41.2973
64 1 1 -0.834 7.63012 5.74767 49.6459
65 1 1 -0.834 4.32096 0.666327 49.0348
66 1 1 -0.834 15.5701 11.6067 64.6
67 1 1 -0.834 22.558 5.63679 37.4329
68 1 1 -0.834 1.07976 5.24751 65.8393
69 1 1 -0.834 20.0343 17.6321 51.5524
70 1 1 -0.834 19.184 23.1265 30.7419
71 1 1 -0.834 20.8968 3.29076 49.6637
72 1 1 -0.834 3.64508 1.31698 78.2093
73 1 1 -0.834 0.389707 9.20592 60.8914
74 1 1 -0.834 19.0778 15.4742 65.9432
75 1 1 -0.834 8.70305 14.5124 65.9056
76 1 1 -0.834 9.63459 20.9606 49.0509
77 1 1 -0.834 9.1061 12.6628 59.0688
78 1 1 -0.834 3.12538 19.9834 65.7466
79 1 1 -0.834 10.1543 18.128 70.2374
80 1 1 -0.834 13.6187 2.35968 17.6387
81 1 1 -0.834 13.5425 14.0757 46.4705
82 1 1 -0.834 8.45266 20.6307 60.8411
83 1 1 -0.834 21.1753 17.1255 66.8311
84 1 1 -0.834 20.7054 3.94273 52.8651
85 1 1 -0.834 10.4409 2.26953 85.1547
86 1 1 -0.834 24.3576 24.3854 54.1381
87 1 1 -0.834 23.8635 22.1689 62.029
88 1 1 -0.834 6.75674 15.26 79.4335
89 1 1 -0.834 7.227 13.9325 75.9539
90 1 1 -0.834 17.5176 1.87879 68.6762
91 1 1 -0.834 11.8119 23.7927 61.1484
92 1 1 -0.834 14.7333 16.5538 73.7589
93 1 1 -0.834 23.1417 9.09025 82.1922
94 1 1 -0.834 2.59904 3.01586 66.2701
95 1 1 -0.834 1.39365 16.1823 53.6674
96 1 1 -0.834 14.4321 12.3863 5.32
97 1 1 -0.834 17.2437 8.79476 76.8688
98 1 1 -0.834 12.3347 17.4358 61.8672
99 1 1 -0.834 2.69564 15.165 19.3481
100 1 1 -0.834 3.6058 13.6089 58.1885
101 1 1 -0.834 21.5162 1.54535 52.2217
102 1 1 -0.834 0.677826 22.8013 79.6304
103 1 1 -0.834 20.4208 13.2813 54.8331
104 1 1 -0.834 13.9537 2.23221 71.6231
105 1 1 -0.834 6.14102 11.7575 77.1104
106 1 1 -0.834 12.2873 22.1636 38.0838
107 1 1 -0.834 24.3815 1.38659 49.1675
108 1 1 -0.834 6.97283 5.51751 3.84107
109 1 1 -0.834 7.67749 13.4365 44.0821
110 1 1 -0.834 23.1752 4.536 47.4151
111 1 1 -0.834 20.9007 11.7847 60.573
112 1 1 -0.834 1.14266 1.18943 29.054
113 1 1 -0.834 15.644 14.5295 52.1902
114 1 1 -0.834 6.1635 8.20578 29.3341
115 1 1 -0.834 5.64211 22.0011 77.8765
116 1 1 -0.834 11.4889 15.6576 76.5174
117 1 1 -0.834 16.1708 14.4709 44.9851
118 1 1 -0.834 15.3726 19.905 9.57829
119 1 1 -0.834 5.38783 6.33274 32.8659
120 1 1 -0.834 10.3131 6.46005 47.7306
121 1 1 -0.834 10.8196 9.66748 52.5789
122 1 1 -0.834 23.6998 0.884494 7.55298
123 1 1 -0.834 23.5123 9.46132 55.6421
124 1 1 -0.834 17.4687 14.9778 6.44181
125 1 1 -0.834 17.6661 14.8661 56.0972
126 1 1 -0.834 22.8645 23.5081 64.1584
127 1 1 -0.834 20.9937 13.1129 39.5712
128 1 1 -0.834 12.6613 3.76423 52.2013
129 1 1 -0.834 20.355 19.1738 62.3217
130 1 1 -0.834 22.3498 7.24341 11.0365
131 1 1 -0.834 0.441975 7.18776 80.2413
132 1 1 -0.834 20.1365 10.1658 70.1797
133 1 1 -0.834 19.7981 14.8517 52.3152
134 1 1 -0.834 0.0531316 22.4355 7.19739
135 1 1 -0.834 17.0305 23.9227 21.8205
136 1 1 -0.834 3.09551 5.09668 75.2459
137 1 1 -0.834 6.59697 20.2101 37.6377
138 1 1 -0.834 20.2592 4.8473 58.8608
139 1 1 -0.834 13.8365 9.60221 55.5756
140 1 1 -0.834 12.9767 5.95293 72.8307
141 1 1 -0.834 14.7123 13.0769 71.4329
142 1 1 -0.834 13.489 10.5627 49.1152
143 1 1 -0.834 23.5162 4.32187 50.3461
144 1 1 -0.834 4.75518 15.615 0.615484
145 1 1 -0.834 18.6405 19.0362 0.642162
146 1 1 -0.834 20.6089 5.38771 80.9968
147 1 1 -0.834 8.23738 18.1034 43.3787
148 1 1 -0.834 16.1103 20.1459 55.3172
149 1 1 -0.834 14.9417 23.3002 84.4599
150 1 1 -0.834 24.3935 6.41078 61.44
151 1 1 -0.834 0.00647495 22.5873 46.768
152 1 1 -0.834 1.61972 0.865796 76.4315
153 1 1 -0.834 19.1272 12.3774 44.0412
154 1 1 -0.834 9.09734 8.20342 67.7406
155 1 1 -0.834 15.9188 11.2259 47.8032
156 1 1 -0.834 23.4887 1.32559 4.76427
157 1 1 -0.834 23.6777 20.4677 42.1324
158 1 1 -0.834 23.7129 16.4261 23.8399
159 1 1 -0.834 0.127115 7.73964 43.0232
160 1 1 -0.834 23.2037 10.4653 37.5687
161 1 1 -0.834 2.26693 13.1597 76.0638
162 1 1 -0.834 7.32741 3.46995 56.0851
163 1 1 -0.834 22.9611 13.7254 44.2811
164 1 1 -0.834 22.3665 17.1034 71.9778
165 1 1 -0.834 15.4016 4.92269 67.3724
166 1 1 -0.834 22.815 8.38867 40.257
167 1 1 -0.834 11.3233 4.66276 44.7778
168 1 1 -0.834 7.33633 19.1552 40.084
169 1 1 -0.834 15.1571 4.15399 77.4298
170 1 1 -0.834 9.2188 9.35257 27.0622
171 1 1 -0.834 2.59227 6.36102 33.1605
172 1 1 -0.834 9.31965 10.1106 50.2443
173 1 1 -0.834 9.18212 21.2142 39.4776
174 1 1 -0.834 13.4438 19.3575 36.1101
175 1 1 -0.834 11.9065 20.956 13.3301
176 1 1 -0.834 20.7561 1.63662 27.4756
177 1 1 -0.834 0.0257372 19.7044 63.0213
178 1 1 -0.834 15.953 5.77578 50.5415
179 1 1 -0.834 16.9555 18.7871 4.75749
180 1 1 -0.834 7.29424 16.8825 75.6278
181 1 1 -0.834 14.8569 6.68444 82.698
182 1 1 -0.834 13.5841 1.26117 76.0725
183 1 1 -0.834 10.4322 1.58712 60.1209
184 1 1 -0.834 16.322 10.5659 45.2108
185 1 1 -0.834 7.99555 22.8501 18.6522
186 1 1 -0.834 23.3193 9.46544 70.9008
187 1 1 -0.834 13.7974 23.0277 54.3625
188 1 1 -0.834 21.2523 9.14519 35.2757
189 1 1 -0.834 14.3712 16.8429 46.9999
190 1 1 -0.834 18.775 9.68078 44.8823
191 1 1 -0.834 17.3549 15.941 53.8219
192 1 1 -0.834 17.6554 7.63932 82.0224
193 1 1 -0.834 16.0394 3.9754 64.2406
194 1 1 -0.834 10.6341 22.4985 16.0233
195 1 1 -0.834 19.7337 17.5602 31.5964
196 1 1 -0.834 6.69596 15.3461 68.1378
197 1 1 -0.834 16.2972 22.8546 43.9914
198 1 1 -0.834 16.3171 0.857661 42.8892
199 1 1 -0.834 2.90778 0.20976 68.441
200 1 1 -0.834 22.995 5.52362 57.56
201 1 1 -0.834 18.6493 4.95053 40.888
202 1 1 -0.834 0.339255 4.4753 78.569
203 1 1 -0.834 22.7804 5.36908 64.6918
204 1 1 -0.834 22.9036 6.19865 44.9825
205 1 1 -0.834 21.0865 15.2385 43.0889
206 1 1 -0.834 5.42033 0.805366 68.7091
207 1 1 -0.834 24.3129 22.82 4.53082
208 1 1 -0.834 21.283 19.8959 72.7652
209 1 1 -0.834 3.9035 4.04598 58.6264
210 1 1 -0.834 1.26152 17.214 70.6209
211 1 1 -0.834 19.8939 9.14157 56.7551
212 1 1 -0.834 21.2018 24.24 59.024
213 1 1 -0.834 3.26923 7.45125 70.1528
214 1 1 -0.834 12.6763 12.9451 77.796
215 1 1 -0.834 9.05806 10.7878 24.6778
216 1 1 -0.834 3.86787 17.9062 87.0976
217 1 1 -0.834 13.3875 2.99685 69.105
218 1 1 -0.834 15.8273 9.71818 41.8433
219 1 1 -0.834 9.77233 14.71 68.4935
220 1 1 -0.834 21.946 12.0334 13.2152
221 1 1 -0.834 16.9613 20.0009 43.6465
222 1 1 -0.834 16.7556 6.96703 85.3763
223 1 1 -0.834 18.5325 4.46559 77.6938
224 1 1 -0.834 10.5724 18.1564 48.4362
225 1 1 -0.834 14.0537 17.0732 56.691
226 1 1 -0.834 18.4084 17.9429 77.611
227 1 1 -0.834 2.66712 12.9829 50.1471
228 1 1 -0.834 18.5393 11.4704 53.8583
229 1 1 -0.834 8.80857 15.7907 57.0636
230 1 1 -0.834 20.8691 12.1468 57.7145
231 1 1 -0.834 24.0056 1.94134 66.4109
232 1 1 -0.834 15.8228 12.391 81.1541
233 1 1 -0.834 7.83487 23.666 14.3069
234 1 1 -0.834 12.7636 14.134 69.6503
235 1 1 -0.834 15.0466 1.10438 59.4299
236 1 1 -0.834 17.8947 23.471 65.7643
237 1 1 -0.834 0.664653 10.4982 41.59
238 1 1 -0.834 21.151 13.986 15.3766
239 1 1 -0.834 16.2356 0.668814 19.2938
240 1 1 -0.834 13.0781 19.4328 38.9304
241 1 1 -0.834 9.5954 6.47598 43.1798
242 1 1 -0.834 19.4404 13.2282 69.0585
243 1 1 -0.834 10.8572 23.7004 83.0379
244 1 1 -0.834 13.1347 19.7615 11.1435
245 1 1 -0.834 14.4039 12.2399 58.2655
246 1 1 -0.834 23.6232 2.01488 77.2395
247 1 1 -0.834 9.11413 6.18599 28.8355
248 1 1 -0.834 4.62339 0.295202 53.7414
249 1 1 -0.834 9.59669 8.98778 47.6786
250 1 1 -0.834 13.9029 12.6571 29.4461
251 1 1 -0.834 3.85323 0.0870221 7.30237
252 1 1 -0.834 9.65704 4.55388 53.6721
253 1 1 -0.834 1.03221 22.7932 43.5875
254 1 1 -0.834 22.2736 6.43936 74.4743
255 1 1 -0.834 20.0821 19.186 53.9714
256 1 1 -0.834 19.0533 20.9213 52.1578
257 1 1 -0.834 22.285 22.4322 79.2639
258 1 1 -0.834 2.28512 7.20419 35.774
259 1 1 -0.834 1.55783 16.4207 47.8513
260 1 1 -0.834 4.73935 11.2736 86.7201
261 1 1 -0.834 11.4829 19.4388 58.4233
262 1 1 -0.834 17.7616 11.9954 38.9749
263 1 1 -0.834 6.6295 19.3638 46.4086
264 1 1 -0.834 19.0959 16.1315 71.3874
265 1 1 -0.834 14.0368 14.7585 76.0825
266 1 1 -0.834 21.1862 20.8877 4.35266
267 1 1 -0.834 9.69015 10.8176 70.3114
268 1 1 -0.834 7.27918 13.5463 24.9559
269 1 1 -0.834 19.8294 5.91831 51.1692
270 1 1 -0.834 4.42995 4.95859 64.7493
271 1 1 -0.834 13.1601 17.21 44.6798
272 1 1 -0.834 3.18334 10.5216 73.088
273 1 1 -0.834 11.5802 16.7819 52.9508
274 1 1 -0.834 1.24433 24.1975 10.8881
275 1 1 -0.834 3.44897 22.9244 70.9269
276 1 1 -0.834 10.9846 7.49125 54.1405
277 1 1 -0.834 22.8609 7.98487 58.4709
278 1 1 -0.834 17.0097 14.7551 12.9464
279 1 1 -0.834 10.0737 15.6034 71.4713
280 1 1 -0.834 4.48522 16.3189 75.5175
281 1 1 -0.834 15.3396 3.81651 21.3951
282 1 1 -0.834 0.820478 10.9391 82.6977
283 1 1 -0.834 6.61576 20.3314 49.062
284 1 1 -0.834 13.227 21.0396 16.458
285 1 1 -0.834 13.2858 9.61619 29.4426
286 1 1 -0.834 12.7525 15.3272 72.3147
287 1 1 -0.834 13.4359 7.74501 87.2921
288 1 1 -0.834 20.7069 22.2913 74.3122
289 1 1 -0.834 12.2897 13.9322 34.3054
290 1 1 -0.834 5.92404 2.05301 76.4099
291 1 1 -0.834 18.7552 22.1376 42.8417
292 1 1 -0.834 16.6949 15.1322 72.4304
293 1 1 -0.834 10.2633 13.2008 51.7428
294 1 1 -0.834 2.02365 17.6977 63.894
295 1 1 -0.834 13.6191 18.4173 33.2307
296 1 1 -0.834 11.8244 20.8041 43.4693
297 1 1 -0.834 10.6562 24.0727 55.2523
298 1 1 -0.834 10.7628 17.8134 11.8707
299 1 1 -0.834 19.5069 21.49 6.51232
300 1 1 -0.834 4.72379 5.6545 71.6356
301 1 1 -0.834 7.42036 7.10547 25.25
302 1 1 -0.834 11.6279 22.6056 50.1765
303 1 1 -0.834 11.2713 9.42284 0.833344
304 1 1 -0.834 22.003 20.898 54.3177
305 1 1 -0.834 20.377 15.5107 59.9573
306 1 1 -0.834 8.54985 22.1064 63.1713
307 1 1 -0.834 1.63754 1.81561 8.49394
308 1 1 -0.834 14.6094 19.7066 63.8022
309 1 1 -0.834 9.8495 13.1657 26.2715
310 1 1 -0.834 23.5831 12.1277 50.7998
311 1 1 -0.834 23.5022 10.8679 63.0791
312 1 1 -0.834 24.1458 21.7601 50.2107
313 1 1 -0.834 7.44613 18.0754 17.5926
314 1 1 -0.834 3.80327 14.4747 63.0246
315 1 1 -0.834 3.20329 4.61408 35.9005
316 1 1 -0.834 18.5909 23.4989 5.11937
317 1 1 -0.834 18.6893 6.09443 70.7256
318 1 1 -0.834 22.9559 0.183322 47.2761
319 1 1 -0.834 23.1509 6.25556 17.564
320 1 1 -0.834 0.101037 4.06379 81.2714
321 1 1 -0.834 2.30629 2.61854 62.4702
322 1 1 -0.834 21.0975 0.43095 62.7637
323 1 1 -0.834 0.81655 19.4797 0.915117
324 1 1 -0.834 7.6786 11.5333 52.0244
325 1 1 -0.834 5.08964 10.8715 57.1642
326 1 1 -0.834 5.50997 12.9649 51.1542
327 1 1 -0.834 11.1523 20.738 61.9537
328 1 1 -0.834 12.1475 8.03477 23.4231
329 1 1 -0.834 13.709 1.68256 55.424
330 1 1 -0.834 16.0282 6.4243 55.3775
331 1 1 -0.834 1.24778 19.8836 57.5997
332 1 1 -0.834 9.43185 3.87557 47.0352
333 1 1 -0.834 23.5119 7.0597 35.2827
334 1 1 -0.834 18.1696 8.01211 40.6448
335 1 1 -0.834 7.3925 14.4028 86.7972
336 1 1 -0.834 21.2211 19.4445 50.0235
337 1 1 -0.834 10.3103 13.0399 56.2815
338 1 1 -0.834 10.0699 22.3915 78.1867
339 1 1 -0.834 21.6 17.8951 59.3486
340 1 1 -0.834 7.80035 23.7466 78.1845
341 1 1 -0.834 1.05228 10.3789 58.2444
342 1 1 -0.834 3.305 12.4119 18.6925
343 1 1 -0.834 20.4353 0.0619637 54.4567
344 1 1 -0.834 11.6773 6.92156 67.3514
345 1 1 -0.834 16.4235 14.4758 67.5694
346 1 1 -0.834 7.1814 1.76019 36.9544
347 1 1 -0.834 0.861412 18.6311 85.072
348 1 1 -0.834 18.7897 1.83878 81.7974
349 1 1 -0.834 3.56107 14.9527 16.7587
350 1 1 -0.834 10.4514 20.7409 19.3562
351 1 1 -0.834 16.3661 1.29282 53.1873
352 1 1 -0.834 10.6501 17.7866 56.1927
353 1 1 -0.834 10.0978 3.90383 76.4176
354 1 1 -0.834 18.1617 5.40592 60.3999
355 1 1 -0.834 10.4535 21.9883 74.0879
356 1 1 -0.834 7.43602 2.83633 34.3267
357 1 1 -0.834 20.1379 12.4541 11.0037
358 1 1 -0.834 7.37099 7.58115 70.428
359 1 1 -0.834 8.32975 14.2711 50.3102
360 1 1 -0.834 12.569 15.7698 81.3317
361 1 1 -0.834 0.524944 2.70495 46.6941
362 1 1 -0.834 11.6086 9.10139 78.8878
363 1 1 -0.834 11.6414 18.8587 17.7083
364 1 1 -0.834 0.901909 3.84293 36.9786
365 1 1 -0.834 0.351863 8.57637 12.2031
366 1 1 -0.834 19.1553 16.0459 68.6548
367 1 1 -0.834 18.3084 21.629 1.13688
368 1 1 -0.834 8.89703 21.0296 46.1125
369 1 1 -0.834 23.2076 3.64501 35.0219
370 1 1 -0.834 5.0987 0.539358 45.2019
371 1 1 -0.834 4.43576 15.5505 51.7673
372 1 1 -0.834 3.58054 2.5346 46.455
373 1 1 -0.834 15.3576 12.1701 35.9177
374 1 1 -0.834 2.60745 23.2664 56.1232
375 1 1 -0.834 20.6349 21.686 69.4735
376 1 1 -0.834 12.3582 23.8432 66.4612
377 1 1 -0.834 10.545 6.56839 5.46962
378 1 1 -0.834 2.12778 14.0656 60.5799
379 1 1 -0.834 3.45819 17.4849 73.2907
380 1 1 -0.834 15.1374 2.62681 41.1351
381 1 1 -0.834 3.12399 22.7575 9.51175
382 1 1 -0.834 23.7358 18.4295 77.4059
383 1 1 -0.834 24.2289 18.2709 80.5343
384 1 1 -0.834 6.6285 7.63942 6.39797
385 1 1 -0.834 14.8347 7.86825 20.6108
386 1 1 -0.834 10.8972 22.0057 67.897
387 1 1 -0.834 22.9368 16.1431 83.56
388 1 1 -0.834 7.64526 10.3953 57.6549
389 1 1 -0.834 21.5137 22.4099 29.5501
390 1 1 -0.834 14.4442 17.6804 76.5008
391 1 1 -0.834 9.41986 18.7317 78.3718
392 1 1 -0.834 10.4432 23.34 44.4925
393 1 1 -0.834 17.8003 11.1134 35.8908
394 1 1 -0.834 9.93703 0.176082 37.9372
395 1 1 -0.834 0.587804 6.23535 38.9806
396 1 1 -0.834 10.7309 2.62099 62.992
397 1 1 -0.834 17.1965 11.1113 13.6793
398 1 1 -0.834 2.04775 0.387085 65.9046
399 1 1 -0.834 22.8571 14.6766 53.8435
400 1 1 -0.834 10.4458 14.7998 62.2529
401 1 1 -0.834 12.6676 6.41893 21.4129
402 1 1 -0.834 2.83381 5.79909 81.0848
403 1 1 -0.834 22.7909 0.8485 29.0386
404 1 1 -0.834 22.4787 1.31553 2.14695
405 1 1 -0.834 11.429 7.60796 45.0396
406 1 1 -0.834 20.6691 8.94501 49.2344
407 1 1 -0.834 1.48843 20.1085 43.8552
408 1 1 -0.834 0.223929 15.7543 63.1259
409 1 1 -0.834 20.4193 5.46007 44.2482
410 1 1 -0.834 21.7647 17.0173 3.78484
411 1 1 -0.834 2.78459 2.57008 4.65016
412 1 1 -0.834 1.03998 0.739422 71.5341
413 1 1 -0.834 19.0255 1.49974 77.9094
414 1 1 -0.834 23.7856 12.8536 76.6685
415 1 1 -0.834 5.66499 4.10001 29.6876
416 1 1 -0.834 13.6453 16.9708 69.8729
417 1 1 -0.834 7.91234 9.81015 78.6836
418 1 1 -0.834 2.47446 18.938 48.2926
419 1 1 -0.834 6.72259 10.4457 72.285
420 1 1 -0.834 22.7313 6.57463 13.697
421 1 1 -0.834 13.2663 4.96011 86.7532
422 1 1 -0.834 20.5707 9.34311 59.6474
423 1 1 -0.834 7.4521 6.0652 76.5954
424 1 1 -0.834 19.4384 7.53681 61.7654
425 1 1 -0.834 0.431564 8.50691 37.21
426 1 1 -0.834 20.4814 21.0926 47.8231
427 1 1 -0.834 1.98991 22.3581 64.9697
428 1 1 -0.834 0.0538811 15.9759 57.2561
429 1 1 -0.834 22.3466 20.6368 31.9718
430 1 1 -0.834 15.3285 3.67478 54.2063
431 1 1 -0.834 24.2721 12.1752 54.5035
432 1 1 -0.834 10.4521 9.13472 63.1747
433 1 1 -0.834 20.8377 1.74887 46.0403
434 1 1 -0.834 2.88547 18.3255 19.3657
435 1 1 -0.834 5.66302 5.47395 67.0657
436 1 1 -0.834 13.5019 17.557 66.9347
437 1 1 -0.834 17.6654 15.3281 10.2732
438 1 1 -0.834 10.6898 8.72231 30.0378
439 1 1 -0.834 9.8993 6.41914 24.2312
440 1 1 -0.834 21.5954 8.35223 46.0228
441 1 1 -0.834 14.0275 4.4333 43.9676
442 1 1 -0.834 20.9027 4.71101 15.0652
443 1 1 -0.834 13.2467 12.7406 9.17142
444 1 1 -0.834 23.4715 14.6046 48.3258
445 1 1 -0.834 17.8707 6.24704 20.3328
446 1 1 -0.834 8.18282 21.9474 11.1076
447 1 1 -0.834 11.1833 21.7432 80.8453
448 1 1 -0.834 7.82658 19.9019 19.5966
449 1 1 -0.834 19.1118 22.7802 45.8949
450 1 1 -0.834 6.30273 15.1624 73.3286
451 1 1 -0.834 15.6614 0.328513 86.7721
452 1 1 -0.834 6.22715 12.7604 69.951
453 1 1 -0.834 18.1719 10.2387 62.1638
454 1 1 -0.834 11.1376 12.781 71.664
455 1 1 -0.834 4.05635 21.2931 54.3487
456 1 1 -0.834 2.1268 4.94194 9.52149
457 1 1 -0.834 14.5294 14.4445 79.5966
458 1 1 -0.834 11.4123 5.46969 50.0485
459 1 1 -0.834 17.137 10.0396 56.8853
460 1 1 -0.834 12.7055 7.36598 26.7699
461 1 1 -0.834 9.5771 20.1668 12.4342
462 1 1 -0.834 15.0439 2.7356 50.2882
463 1 1 -0.834 10.1763 24.0968 64.16
464 1 1 -0.834 14.6766 7.44561 68.656
465 1 1 -0.834 0.692227 21.5847 55.1877
466 1 1 -0.834 3.01418 20.1066 21.5167
467 1 1 -0.834 17.8438 19.4197 46.7783
468 1 1 -0.834 5.1652 16.871 46.6487
469 1 1 -0.834 20.8264 19.0737 26.0438
470 1 1 -0.834 3.15112 8.74983 58.1554
471 1 1 -0.834 13.3711 4.2787 65.6728
472 1 1 -0.834 1.05088 19.7844 27.9564
473 1 1 -0.834 10.0213 22.1855 59.1105
474 1 1 -0.834 1.08728 18.2673 75.3292
475 1 1 -0.834 15.0835 10.7829 9.08701
476 1 1 -0.834 14.3518 2.87808 83.7447
477 1 1 -0.834 0.841099 15.062 45.4661
478 1 1 -0.834 12.974 20.4233 55.454
479 1 1 -0.834 19.5765 10.3575 74.0769
480 1 1 -0.834 10.3413 12.9841 43.7243
481 1 1 -0.834 8.97168 22.2177 41.9513
482 1 1 -0.834 2.20551 4.4815 31.1419
483 1 1 -0.834 19.941 22.85 86.5425
484 1 1 -0.834 4.8215 11.1529 21.0471
485 1 1 -0.834 4.97904 13.6621 22.7192
486 1 1 -0.834 20.3111 6.10959 56.4014
487 1 1 -0.834 1.9252 15.2368 85.8405
488 1 1 -0.834 2.77927 15.1303 55.9755
489 1 1 -0.834 12.6115 1.23191 82.0256
490 1 1 -0.834 2.70496 3.47422 28.7357
491 1 1 -0.834 19.1574 19.0395 56.5641
492 1 1 -0.834 10.5693 13.1997 28.9992
493 1 1 -0.834 8.26174 23.7369 35.4455
494 1 1 -0.834 1.63164 9.27767 14.6884
495 1 1 -0.834 3.25816 4.65321 54.9422
496 1 1 -0.834 3.12958 1.6167 60.0425
497 1 1 -0.834 3.59822 7.4516 60.8371
498 1 1 -0.834 2.83096 24.1307 30.679
499 1 1 -0.834 3.65126 10.4266 60.9734
500 1 1 -0.834 17.8979 23.1539 60.2787
501 1 1 -0.834 9.09972 8.90847 40.4138
502 1 1 -0.834 18.187 24.0432 62.8558
503 1 1 -0.834 14.84 14.941 6.28654
504 1 1 -0.834 5.72117 7.2164 1.89591
505 1 1 -0.834 2.45541 16.7642 61.3367
506 1 1 -0.834 6.02831 0.897009 56.8669
507 1 1 -0.834 20.8726 7.47864 64.1371
508 1 1 -0.834 9.14448 0.835323 75.7417
509 1 1 -0.834 1.00931 11.0793 49.3517
510 1 1 -0.834 8.1028 0.215369 42.5512
511 1 1 -0.834 4.5733 3.70393 48.8412
512 1 1 -0.834 10.6906 15.9679 32.9808
513 1 1 -0.834 0.991243 17.4942 44.0298
514 1 1 -0.834 24.1494 18.8546 73.1151
515 1 1 -0.834 6.25617 9.77021 24.9987
516 1 1 -0.834 5.86773 16.1695 42.7965
517 1 1 -0.834 8.42199 0.448005 16.5473
518 1 1 -0.834 15.1673 17.8161 54.3188
519 1 1 -0.834 15.441 12.1047 68.4077
520 1 1 -0.834 24.094 1.57285 63.3577
521 1 1 -0.834 7.92969 4.89313 79.4223
522 1 1 -0.834 21.5954 17.4865 29.0367
523 1 1 -0.834 12.1796 22.9366 76.3502
524 1 1 -0.834 16.631 16.6192 48.5642
525 1 1 -0.834 8.03693 12.0224 28.339
526 1 1 -0.834 4.94089 6.7593 74.3001
527 1 1 -0.834 11.9464 1.79963 47.4025
528 1 1 -0.834 12.4586 5.57821 83.983
529 1 1 -0.834 17.129 18.3058 72.9554
530 1 1 -0.834 3.95645 0.0325056 80.9346
531 1 1 -0.834 2.67974 2.80574 80.4965
532 1 1 -0.834 22.1637 21.144 86.4814
533 1 1 -0.834 21.1865 9.23473 66.9366
534 1 1 -0.834 5.76295 22.8084 35.2302
535 1 1 -0.834 24.1385 20.6166 66.7563
536 1 1 -0.834 2.33895 23.8195 52.889
537 1 1 -0.834 1.97039 1.46883 57.5082
538 1 1 -0.834 22.1086 5.25343 60.7915
539 1 1 -0.834 18.3721 22.5699 24.6104
540 1 1 -0.834 4.33151 23.1547 58.0383
541 1 1 -0.834 18.2836 4.78289 83.9041
542 1 1 -0.834 11.8643 10.7228 32.1619
543 1 1 -0.834 23.5407 9.53507 65.6002
544 1 1 -0.834 4.2539 13.1094 48.0567
545 1 1 -0.834 4.62323 11.7392 63.3512
546 1 1 -0.834 16.7609 15.7641 64.4084
547 1 1 -0.834 17.2048 15.3663 61.7336
548 1 1 -0.834 0.95467 15.6901 73.6384
549 1 1 -0.834 0.184949 14.0844 41.9347
550 1 1 -0.834 16.6289 8.75595 50.9543
551 1 1 -0.834 4.07543 2.329 31.9863
552 1 1 -0.834 4.26442 14.0729 67.7996
553 1 1 -0.834 19.9233 22.1181 63.598
554 1 1 -0.834 11.2718 14.5149 58.7796
555 1 1 -0.834 7.90725 18.5981 71.7762
556 1 1 -0.834 2.76685 7.11771 67.4034
557 1 1 -0.834 7.0672 3.9782 58.8561
558 1 1 -0.834 19.9242 7.93318 42.9036
559 1 1 -0.834 9.15785 15.6864 54.1252
560 1 1 -0.834 14.6302 18.1834 81.0422
561 1 1 -0.834 19.3655 11.706 41.2471
562 1 1 -0.834 10.962 12.2773 63.3718
563 1 1 -0.834 4.46407 14.647 81.5978
564 1 1 -0.834 3.61445 15.3537 70.2741
565 1 1 -0.834 12.6798 22.0692 64.3454
566 1 1 -0.834 13.9707 0.552197 52.0568
567 1 1 -0.834 13.6259 6.43569 58.3342
568 1 1 -0.834 21.0659 12.7521 46.1347
569 1 1 -0.834 7.93735 8.38851 59.5013
570 1 1 -0.834 12.3991 11.0222 45.8528
571 1 1 -0.834 21.0773 16.7181 46.6955
572 1 1 -0.834 22.7342 10.5471 44.3731
573 1 1 -0.834 6.81703 20.9328 44.0346
574 1 1 -0.834 15.3552 12.5298 74.7226
575 1 1 -0.834 15.426 6.77025 75.8458
576 1 1 -0.834 23.7886 0.40485 58.501
577 1 1 -0.834 3.01057 21.063 59.2374
578 1 1 -0.834 0.631129 12.5103 73.2696
579 1 1 -0.834 1.28351 11.8487 85.3378
580 1 1 -0.834 13.1661 2.11434 0.163468
581 1 1 -0.834 18.1985 14.2688 49.7081
582 1 1 -0.834 2.65587 6.32335 12.1874
583 1 1 -0.834 11.9454 17.9588 79.83
584 1 1 -0.834 16.8219 21.7229 27.5234
585 1 1 -0.834 22.392 17.5766 56.0059
586 1 1 -0.834 9.7622 1.54045 45.3037
587 1 1 -0.834 5.92259 16.1294 84.8539
588 1 1 -0.834 17.6867 6.83357 57.8617
589 1 1 -0.834 7.1014 18.9964 52.7028
590 1 1 -0.834 2.30518 14.7243 1.45548
591 1 1 -0.834 16.1161 24.0954 25.1344
592 1 1 -0.834 8.15028 8.36984 64.2862
593 1 1 -0.834 9.36694 17.9497 51.1452
594 1 1 -0.834 9.64194 20.5851 71.7793
595 1 1 -0.834 2.4496 18.3023 51.6554
596 1 1 -0.834 1.52867 16.193 82.7193
597 1 1 -0.834 5.72521 6.01761 8.78185
598 1 1 -0.834 20.2796 3.95202 62.7193
599 1 1 -0.834 3.4239 20.0931 74.1713
600 1 1 -0.834 11.2069 14.9862 45.7016
601 1 1 -0.834 23.5319 20.2679 45.3559
602 1 1 -0.834 9.4838 2.50699 49.5491
603 1 1 -0.834 4.70816 18.1861 23.2701
604 1 1 -0.834 12.6738 16.5236 38.1135
605 1 1 -0.834 17.3255 13.1609 58.8998
606 1 1 -0.834 5.41225 10.9742 43.3097
607 1 1 -0.834 4.65992 2.75505 34.7474
608 1 1 -0.834 19.1501 20.1319 75.9674
609 1 1 -0.834 3.32895 12.4518 70.6083
610 1 1 -0.834 6.42182 5.65196 43.6905
611 1 1 -0.834 17.506 11.9913 70.65
612 1 1 -0.834 17.5913 4.60651 22.5164
613 1 1 -0.834 6.32875 8.37414 43.3544
614 1 1 -0.834 12.2284 22.9808 19.7995
615 1 1 -0.834 24.1648 9.81118 52.1848
616 1 1 -0.834 1.24051 20.7308 52.6406
617 1 1 -0.834 0.776495 22.7042 59.5836
618 1 1 -0.834 5.16872 23.824 13.6574
619 1 1 -0.834 16.4016 24.116 69.7223
620 1 1 -0.834 8.17879 3.23174 62.7635
621 1 1 -0.834 10.9448 5.28905 63.4425
622 1 1 -0.834 20.4788 15.6401 49.061
623 1 1 -0.834 19.2117 23.655 79.7769
624 1 1 -0.834 20.8921 13.6084 65.344
625 1 1 -0.834 13.7382 10.2764 43.5944
626 1 1 -0.834 7.67853 13.0414 55.0842
627 1 1 -0.834 23.6046 19.1079 30.071
628 1 1 -0.834 19.9538 8.45906 54.0576
629 1 1 -0.834 8.05665 21.6837 16.1196
630 1 1 -0.834 14.6664 0.891531 78.7762
631 1 1 -0.834 17.0189 5.79738 43.2333
632 1 1 -0.834 14.8776 18.5218 59.0835
633 1 1 -0.834 11.6873 21.6672 46.6172
634 1 1 -0.834 11.5348 13.5238 31.7579
635 1 1 -0.834 14.274 6.5296 24.6425
636 1 1 -0.834 16.8875 16.6954 80.0449
637 1 1 -0.834 2.50412 22.0035 50.3589
638 1 1 -0.834 8.17111 0.92637 69.8875
639 1 1 -0.834 8.08898 7.39143 51.7269
640 1 1 -0.834 18.2455 1.63989 25.5922
641 1 1 -0.834 21.6995 21.5556 51.7795
642 1 1 -0.834 12.2346 10.8769 5.13259
643 1 1 -0.834 16.1956 6.75926 18.0777
644 1 1 -0.834 8.30409 12.7394 78.9997
645 1 1 -0.834 12.8019 7.81508 3.93415
646 1 1 -0.834 5.70974 9.6947 51.1843
647 1 1 -0.834 9.93702 10.7685 77.2044
648 1 1 -0.834 18.0122 4.06272 56.6699
649 1 1 -0.834 22.9177 22.7391 24.8547
650 1 1 -0.834 21.7848 3.25401 42.6561
651 1 1 -0.834 19.0914 16.8166 74.0947
652 1 1 -0.834 10.3687 23.7431 52.4854
653 1 1 -0.834 6.03341 18.9717 77.183
654 1 1 -0.834 23.1765 20.7234 76.0544
655 1 1 -0.834 2.89862 22.6488 74.8216
656 1 1 -0.834 0.532326 4.13524 72.5614
657 1 1 -0.834 24.3791 22.7485 68.3306
658 1 1 -0.834 19.2957 1.48922 65.7293
659 1 1 -0.834 15.585 23.9246 48.5517
660 1 1 -0.834 14.4929 7.59138 48.8133
661 1 1 -0.834 2.7903 5.43718 62.7134
662 1 1 -0.834 20.3475 14.8096 8.82316
663 1 1 -0.834 22.8697 1.78984 72.1825
664 1 1 -0.834 9.91579 6.77805 87.0384
665 1 1 -0.834 8.30477 13.2036 72.5352
666 1 1 -0.834 5.53967 17.3115 81.9518
667 1 1 -0.834 5.20027 0.383187 38.5964
668 1 1 -0.834 0.0250761 12.6967 46.4841
669 1 1 -0.834 15.6671 9.19658 63.0345
670 1 1 -0.834 2.42654 18.8636 79.3419
671 1 1 -0.834 9.66327 15.8924 78.9974
672 1 1 -0.834 17.4893 21.5277 49.2554
673 1 1 -0.834 20.1776 18.3398 69.9341
674 1 1 -0.834 16.5494 12.3702 7.28594
675 1 1 -0.834 16.5278 5.74161 73.2991
676 1 1 -0.834 18.6876 15.9659 33.5361
677 1 1 -0.834 5.93232 3.39512 70.6989
678 1 1 -0.834 17.982 21.8567 69.6082
679 1 1 -0.834 10.2757 21.7314 36.3054
680 1 1 -0.834 8.51282 23.4614 56.8637
681 1 1 -0.834 6.44724 5.75099 62.8763
682 1 1 -0.834 16.3297 16.1375 69.7999
683 1 1 -0.834 4.655 18.6238 84.4544
684 1 1 -0.834 12.9119 20.6701 78.8902
685 1 1 -0.834 9.25669 13.7723 2.85646
686 1 1 -0.834 14.2929 7.65292 79.5597
687 1 1 -0.834 14.799 20.8572 57.6168
688 1 1 -0.834 17.6629 1.46591 60.5267
689 1 1 -0.834 8.45651 20.428 76.2002
690 1 1 -0.834 22.3014 0.252606 68.2816
691 1 1 -0.834 3.91039 18.6679 56.5223
692 1 1 -0.834 9.50323 12.5849 75.1972
693 1 1 -0.834 13.765 0.97 62.2919
694 1 1 -0.834 7.28303 15.5155 70.7915
695 1 1 -0.834 4.3274 7.51264 55.4327
696 1 1 -0.834 14.0752 12.3499 53.5546
697 1 1 -0.834 21.6148 22.6406 44.5533
698 1 1 -0.834 9.39458 9.94726 55.3177
699 1 1 -0.834 3.87955 4.28849 68.6994
700 1 1 -0.834 10.0782 20.5037 65.724
701 1 1 -0.834 14.6461 2.44455 26.3147
702 1 1 -0.834 2.13355 9.14129 50.7797
703 1 1 -0.834 10.6646 3.11586 20.3559
704 1 1 -0.834 0.184465 14.5037 65.6422
705 1 1 -0.834 9.07636 2.55325 73.1784
706 1 1 -0.834 7.03619 8.55584 46.12
707 1 1 -0.834 1.57984 22.1651 2.4061
708 1 1 -0.834 15.1888 3.62428 46.191
709 1 1 -0.834 16.0865 4.39102 81.7185
710 1 1 -0.834 9.07874 6.10749 73.1257
711 1 1 -0.834 18.2234 4.10248 44.8907
712 1 1 -0.834 7.28712 3.67979 51.3228
713 1 1 -0.834 8.23163 12.209 68.2909
714 1 1 -0.834 16.4707 1.99272 74.1209
715 1 1 -0.834 14.2815 22.9406 59.5977
716 1 1 -0.834 11.9643 3.68165 74.4269
717 1 1 -0.834 9.74986 23.8894 71.7088
718 1 1 -0.834 18.8377 12.7437 62.8738
719 1 1 -0.834 14.5925 10.0287 52.349
720 1 1 -0.834 16.8566 21.3229 3.81612
721 1 1 -0.834 9.02048 1.60882 40.1961
722 1 1 -0.834 4.41063 6.45182 5.04404
723 1 1 -0.834 3.99806 15.5415 78.1227
724 1 1 -0.834 5.2011 12.7039 60.4981
725 1 1 -0.834 9.68193 12.6009 5.39287
726 1 1 -0.834 22.5426 6.7781 71.9079
727 1 1 -0.834 7.29175 11.07 5.50049
728 1 1 -0.834 13.0315 22.8012 73.2917
729 1 1 -0.834 1.56009 3.40992 50.3486
730 1 1 -0.834 23.7368 12.2621 39.7609
731 1 1 -0.834 1.7863 12.3498 62.7346
732 1 1 -0.834 10.036 18.2014 63.8864
733 1 1 -0.834 3.64533 10.0258 52.801
734 1 1 -0.834 8.05951 6.65769 57.3363
735 1 1 -0.834 1.15566 9.84562 44.6156
736 1 1 -0.834 22.5545 14.1713 58.5108
737 1 1 -0.834 2.64664 14.6353 41.1305
738 1 1 -0.834 14.5532 0.997325 45.5887
739 1 1 -0.834 13.7022 22.7052 44.5672
740 1 1 -0.834 21.9929 10.1027 11.1713
741 1 1 -0.834 22.2142 7.23529 79.0401
742 1 1 -0.834 13.1702 19.2288 49.1776
743 1 1 -0.834 0.824729 1.04166 44.4094
744 1 1 -0.834 21.013 9.63204 77.4079
745 1 1 -0.834 21.3086 18.2603 1.08729
746 1 1 -0.834 4.00167 1.89473 51.6131
747 1 1 -0.834 17.222 11.9364 33.0206
748 1 1 -0.834 6.76721 23.5364 48.5158
749 1 1 -0.834 7.96705 0.485082 59.3063
750 1 1 -0.834 23.214 15.7936 77.3945
751 1 1 -0.834 15.6632 8.93989 71.6565
752 1 1 -0.834 20.7536 9.26764 19.9455
753 1 1 -0.834 2.19954 23.4 62.2795
754 1 1 -0.834 1.52798 12.649 56.7083
755 1 1 -0.834 10.4303 0.376205 14.4165
756 1 1 -0.834 12.2772 14.9952 56.2213
757 1 1 -0.834 4.08266 0.913861 63.8065
758 1 1 -0.834 17.5569 19.0228 70.0537
759 1 1 -0.834 14.4408 21.6966 76.2536
760 1 1 -0.834 11.0377 2.08569 54.4564
761 1 1 -0.834 1.01047 13.9158 69.202
762 1 1 -0.834 23.7699 0.334771 51.4276
763 1 1 -0.834 2.98488 5.20376 77.961
764 1 1 -0.834 5.80664 6.06237 60.2091
765 1 1 -0.834 22.9355 17.8653 86.2054
766 1 1 -0.834 4.45734 23.6931 60.8414
767 1 1 -0.834 6.69922 2.23198 48.1505
768 1 1 -0.834 21.527 12.0382 78.5656