ITEM: TIMESTEP
500000
ITEM: NUMBER OF ATOMS
4768
ITEM: BOX BOUNDS xy xz yz pp pp pp
0.0000000000000000e+00 2.4433001000000001e+01 0.0000000000000000e+00
0.0000000000000000e+00 2.4433001000000001e+01 0.0000000000000000e+00
0.0000000000000000e+00 8.7675772958794497e+01 0.0000000000000000e+00
ITEM: ATOMS id mol type q x y z
1 1 1 -0.834 12.9738 2.9235 43.7241
2 1 1 -0.834 8.00297 17.6454 73.7807
3 1 1 -0.834 8.21615 21.3088 47.1515
4 1 1 -0.834 21.4406 9.76628 10.934
5 1 1 -0.834 6.60347 19.0576 75.9919
6 1 1 -0.834 6.71117 0.638262 69.9309
7 1 1 -0.834 20.9734 0.867338 77.5155
8 1 1 -0.834 22.8941 11.1867 79.1069
9 1 1 -0.834 2.63492 15.2143 76.7963
10 1 1 -0.834 2.93936 13.637 49.545
11 1 1 -0.834 15.0447 7.52049 79.9357
12 1 1 -0.834 5.24712 19.2014 15.9769
13 1 1 -0.834 18.9592 19.584 32.0091
14 1 1 -0.834 13.0012 13.2699 77.94
15 1 1 -0.834 4.77648 10.6011 43.8966
16 1 1 -0.834 8.28784 23.6141 16.5423
17 1 1 -0.834 3.15638 15.6 72.2313
18 1 1 -0.834 22.3381 22.9215 4.38724
19 1 1 -0.834 11.1382 14.6375 9.65574
20 1 1 -0.834 5.67827 4.53178 79.0419
21 1 1 -0.834 3.38047 23.0177 8.69636
22 1 1 -0.834 9.23438 21.7481 58.2248
23 1 1 -0.834 5.13607 13.299 1.66901
24 1 1 -0.834 0.214039 20.3145 45.8145
25 1 1 -0.834 10.5131 8.34389 54.7875
26 1 1 -0.834 16.7089 15.9433 70.6581
27 1 1 -0.834 12.5356 13.8517 63.0787
28 1 1 -0.834 4.12094 8.1312 61.4704
29 1 1 -0.834 18.8172 6.80659 39.1845
30 1 1 -0.834 4.69213 7.73321 43.6763
31 1 1 -0.834 4.77464 12.7466 69.426
32 1 1 -0.834 1.39804 19.6706 25.7002
33 1 1 -0.834 7.94835 19.2831 37.4208
34 1 1 -0.834 17.9893 1.61711 1.07949
35 1 1 -0.834 8.14538 17.1317 81.2642
36 1 1 -0.834 3.82769 0.432863 81.4006
37 1 1 -0.834 14.5311 9.42179 67.8373
38 1 1 -0.834 20.4802 20.0971 65.5451
39 1 1 -0.834 24.1598 11.8433 57.0687
40 1 1 -0.834 21.0659 8.19254 19.4975
41 1 1 -0.834 15.7734 5.08544 86.8167
42 1 1 -0.834 20.4499 11.3875 71.5586
43 1 1 -0.834 1.51475 3.82832 76.0764
44 1 1 -0.834 7.22944 14.0894 68.495
45 1 1 -0.834 6.02976 4.39814 35.5405
46 1 1 -0.834 17.6442 7.59762 18.6959
47 1 1 -0.834 13.3197 16.0698 49.4058
48 1 1 -0.834 21.8462 5.5677 47.123
49 1 1 -0.834 10.834 9.16317 52.1154
50 1 1 -0.834 12.6817 0.795658 21.5615
51 1 1 -0.834 18.1137 4.29017 72.7216
52 1 1 -0.834 21.075 5.30051 51.9749
53 1 1 -0.834 13.5996 21.5115 52.0267
54 1 1 -0.834 1.01324 5.9379 59.1066
55 1 1 -0.834 13.4002 12.9365 10.1521
56 1 1 -0.834 1.6254 8.74084 74.128
57 1 1 -0.834 15.3169 18.2182 6.50688
58 1 1 -0.834 19.7915 1.1663 3.16359
59 1 1 -0.834 22.3874 1.92858 46.7081
60 1 1 -0.834 1.13914 10.8903 76.9726
61 1 1 -0.834 3.11605 6.71831 78.8956
62 1 1 -0.834 14.1806 11.7747 49.3319
63 1 1 -0.834 10.0089 7.05521 42.0571
64 1 1 -0.834 6.67699 3.28694 67.0599
65 1 1 -0.834 6.11912 4.47698 55.8169
66 1 1 -0.834 6.96633 6.32984 49.1293
67 1 1 -0.834 0.761409 22.5413 43.7824
68 1 1 -0.834 16.4236 5.7229 41.8609
69 1 1 -0.834 19.0122 0.973929 62.4051
70 1 1 -0.834 7.81482 12.2121 23.4913
71 1 1 -0.834 5.3036 7.02982 66.2455
72 1 1 -0.834 19.0301 23.5702 65.8308
73 1 1 -0.834 10.0649 14.805 68.6987
74 1 1 -0.834 11.2301 23.1169 65.1254
75 1 1 -0.834 9.31207 0.205423 75.5821
76 1 1 -0.834 2.85568 17.0829 74.6839
77 1 1 -0.834 19.2297 11.4642 69.2607
78 1 1 -0.834 13.8139 11.6996 32.6761
79 1 1 -0.834 12.3354 10.1469 69.084
80 1 1 -0.834 9.52803 16.7217 14.9331
81 1 1 -0.834 10.5383 8.63642 60.9125
82 1 1 -0.834 7.4782 14.8373 64.4312
83 1 1 -0.834 20.2753 9.08949 73.2657
84 1 1 -0.834 13.8557 24.1337 64.4806
85 1 1 -0.834 3.07979 15.5847 83.1746
86 1 1 -0.834 19.3731 13.031 74.8194
87 1 1 -0.834 12.1507 6.28338 80.4853
88 1 1 -0.834 18.0842 11.8981 72.6311
89 1 1 -0.834 15.4368 2.93052 72.3354
90 1 1 -0.834 18.4012 21.1886 76.7982
91 1 1 -0.834 15.4549 19.3449 60.9918
92 1 1 -0.834 4.1199 22.7573 61.6999
93 1 1 -0.834 20.0982 22.4867 2.64484
94 1 1 -0.834 0.554357 22.2937 53.0081
95 1 1 -0.834 9.92131 13.3755 65.2177
96 1 1 -0.834 6.34119 1.24275 8.75638
97 1 1 -0.834 8.47828 22.2778 64.3334
98 1 1 -0.834 3.14238 19.4704 82.6139
99 1 1 -0.834 21.5705 19.3453 5.41276
100 1 1 -0.834 18.5903 0.443788 72.9496
101 1 1 -0.834 6.62611 15.1456 61.4985
102 1 1 -0.834 16.724 9.48303 77.7531
103 1 1 -0.834 24.2456 19.6976 53.9621
104 1 1 -0.834 20.8482 23.9815 42.9334
105 1 1 -0.834 4.08435 8.56139 68.1551
106 1 1 -0.834 2.22578 12.2084 56.1713
107 1 1 -0.834 24.4293 16.5569 65.296
108 1 1 -0.834 4.0299 18.914 61.1237
109 1 1 -0.834 3.97429 2.16065 50.6644
110 1 1 -0.834 8.16452 11.0664 45.8153
111 1 1 -0.834 16.5132 9.72521 65.8312
112 1 1 -0.834 16.8179 13.1166 53.3742
113 1 1 -0.834 0.282266 23.8724 72.0861
114 1 1 -0.834 13.0472 18.1179 32.6777
115 1 1 -0.834 5.96669 13.3273 65.9674
116 1 1 -0.834 13.5838 6.41185 77.8217
117 1 1 -0.834 18.2733 8.88355 42.93
118 1 1 -0.834 14.3108 1.2669 18.0541
119 1 1 -0.834 20.6038 23.7397 26.224
120 1 1 -0.834 3.03889 17.8028 64.1529
121 1 1 -0.834 24.3935 5.86932 51.5321
122 1 1 -0.834 11.4083 0.157999 79.5576
123 1 1 -0.834 14.4865 17.945 81.3521
124 1 1 -0.834 0.418919 19.2292 85.9355
125 1 1 -0.834 15.078 19.4343 53.372
126 1 1 -0.834 10.984 2.73585 52.5701
127 1 1 -0.834 15.5765 16.6172 61.0885
128 1 1 -0.834 0.947518 10.9117 59.4483
129 1 1 -0.834 15.1702 17.0477 37.5172
130 1 1 -0.834 3.68402 15.103 16.5541
131 1 1 -0.834 17.3084 12.809 38.1836
132 1 1 -0.834 2.62064 10.1331 63.5718
133 1 1 -0.834 5.49052 7.51352 76.6576
134 1 1 -0.834 20.1422 3.11768 85.1253
135 1 1 -0.834 2.80535 7.71103 9.55393
136 1 1 -0.834 7.68612 15.4424 75.3178
137 1 1 -0.834 10.8164 12.8526 43.5913
138 1 1 -0.834 12.9217 13.3641 60.1753
139 1 1 -0.834 22.3892 12.628 73.024
140 1 1 -0.834 18.2025 8.45441 60.6046
141 1 1 -0.834 12.1374 3.71172 71.7497
142 1 1 -0.834 0.447106 4.97876 47.3612
143 1 1 -0.834 9.27732 13.4747 76.9165
144 1 1 -0.834 8.83936 21.7686 70.4554
145 1 1 -0.834 10.789 23.6003 62.2032
146 1 1 -0.834 15.0513 1.24708 45.7249
147 1 1 -0.834 13.278 7.38344 25.4032
148 1 1 -0.834 10.4258 3.97749 63.7256
149 1 1 -0.834 19.6548 6.81616 78.5828
150 1 1 -0.834 22.4376 1.78013 43.699
151 1 1 -0.834 1.62187 0.948145 56.9145
152 1 1 -0.834 18.4144 3.477 76.5826
153 1 1 -0.834 21.3331 20.4889 68.1702
154 1 1 -0.834 0.673751 23.2178 3.04621
155 1 1 -0.834 13.8929 15.0391 71.6105
156 1 1 -0.834 9.86094 6.04796 5.35808
157 1 1 -0.834 19.6308 2.11041 43.762
158 1 1 -0.834 2.97544 22.4884 33.7721
159 1 1 -0.834 8.13518 13.1961 54.9373
160 1 1 -0.834 13.8353 16.5573 46.6579
161 1 1 -0.834 3.87802 13.151 78.0687
162 1 1 -0.834 16.7519 22.3649 49.8005
163 1 1 -0.834 5.10793 21.3226 38.3267
164 1 1 -0.834 8.82705 23.3882 66.7992
165 1 1 -0.834 13.7264 21.8561 77.4916
166 1 1 -0.834 19.881 4.88418 49.2057
167 1 1 -0.834 6.96083 9.95119 42.1093
168 1 1 -0.834 5.96784 11.7449 27.3334
169 1 1 -0.834 6.18087 0.915217 64.262
170 1 1 -0.834 17.0029 14.7704 29.7283
171 1 1 -0.834 3.92368 4.25304 37.4159
172 1 1 -0.834 5.28735 2.99618 61.4067
173 1 1 -0.834 8.16484 5.66281 61.9329
174 1 1 -0.834 4.40936 3.76777 33.1812
175 1 1 -0.834 4.86167 15.6528 79.0921
176 1 1 -0.834 3.14849 3.6523 9.76044
177 1 1 -0.834 15.2761 2.98298 56.8227
178 1 1 -0.834 17.7774 16.9696 67.0786
179 1 1 -0.834 18.435 10.6292 14.5869
180 1 1 -0.834 10.5492 9.714 41.5935
181 1 1 -0.834 14.2895 1.00659 0.171893
182 1 1 -0.834 20.7399 23.5792 51.1987
183 1 1 -0.834 4.97976 23.9485 50.0422
184 1 1 -0.834 20.6042 0.177483 56.1612
185 1 1 -0.834 6.47188 1.20722 38.4821
186 1 1 -0.834 13.3989 18.0374 57.3753
187 1 1 -0.834 8.83027 17.1776 65.4527
188 1 1 -0.834 11.529 11.6177 25.3762
189 1 1 -0.834 1.46666 0.874442 50.5908
190 1 1 -0.834 17.5042 18.5556 49.63
191 1 1 -0.834 3.60342 12.9664 72.0272
192 1 1 -0.834 11.1382 2.06329 56.979
193 1 1 -0.834 19.7232 18.0015 68.7328
194 1 1 -0.834 1.7488 17.4145 20.0724
195 1 1 -0.834 16.7496 6.36784 21.8517
196 1 1 -0.834 13.0447 0.215303 77.3218
197 1 1 -0.834 21.5551 8.14518 52.0964
198 1 1 -0.834 7.17087 24.2847 40.8128
199 1 1 -0.834 11.9811 21.3786 61.2004
200 1 1 -0.834 7.50087 15.7492 51.9412
201 1 1 -0.834 8.89932 16.72 50.0187
202 1 1 -0.834 8.62399 19.7357 51.5198
203 1 1 -0.834 2.82544 21.0898 59.5976
204 1 1 -0.834 21.0597 22.6863 79.0152
205 1 1 -0.834 19.7373 15.8784 70.6242
206 1 1 -0.834 21.8008 4.0101 54.5648
207 1 1 -0.834 8.88271 7.21906 79.1405
208 1 1 -0.834 23.4334 22.0639 57.217
209 1 1 -0.834 13.4697 16.5591 54.4448
210 1 1 -0.834 17.809 5.01126 61.3484
211 1 1 -0.834 4.34322 13.4359 59.84
212 1 1 -0.834 0.568324 10.3841 49.6351
213 1 1 -0.834 10.6827 12.3226 69.5551
214 1 1 -0.834 14.3307 20.6389 49.5789
215 1 1 -0.834 6.50754 1.16776 35.7043
216 1 1 -0.834 21.0956 22.1632 75.721
217 1 1 -0.834 5.06493 16.5189 53.2904
218 1 1 -0.834 12.9568 1.56005 41.2544
219 1 1 -0.834 16.9268 16.5646 79.9244
220 1 1 -0.834 14.7169 1.35339 82.8877
221 1 1 -0.834 15.7573 20.7558 43.41
222 1 1 -0.834 3.04323 21.5228 70.8531
223 1 1 -0.834 11.5938 15.0751 76.2046
224 1 1 -0.834 8.35589 21.9266 38.1165
225 1 1 -0.834 0.879722 6.37033 75.1026
226 1 1 -0.834 17.6079 6.53528 63.6497
227 1 1 -0.834 2.85817 13.6416 87.4079
228 1 1 -0.834 5.95328 3.71168 52.2469
229 1 1 -0.834 0.267817 16.9086 68.1202
230 1 1 -0.834 11.853 11.0573 63.52
231 1 1 -0.834 20.8574 16.6025 46.4327
232 1 1 -0.834 15.746 12.4875 81.0056
233 1 1 -0.834 3.4386 17.5537 24.8123
234 1 1 -0.834 7.31775 9.64557 71.0524
235 1 1 -0.834 18.5482 24.2944 80.4862
236 1 1 -0.834 22.3924 12.4955 62.3303
237 1 1 -0.834 5.6577 10.5001 23.7329
238 1 1 -0.834 6.88105 21.9601 18.0418
239 1 1 -0.834 24.2556 20.5318 1.07218
240 1 1 -0.834 8.57729 6.67751 31.0927
241 1 1 -0.834 12.2644 1.77669 64.0029
242 1 1 -0.834 15.1801 20.0292 47.0299
243 1 1 -0.834 1.11068 12.5271 80.0261
244 1 1 -0.834 17.4142 23.3025 22.8381
245 1 1 -0.834 8.523 6.40217 71.3736
246 1 1 -0.834 14.2665 11.5819 74.255
247 1 1 -0.834 19.2893 15.2449 64.5914
248 1 1 -0.834 1.14109 11.4522 72.8842
249 1 1 -0.834 23.2879 17.1284 44.0668
250 1 1 -0.834 1.48453 3.24819 11.9844
251 1 1 -0.834 1.33716 13.8337 17.4596
252 1 1 -0.834 0.228218 7.41696 55.8658
253 1 1 -0.834 12.8546 2.23072 50.4407
254 1 1 -0.834 22.5848 11.187 54.9027
255 1 1 -0.834 18.8621 9.62682 45.617
256 1 1 -0.834 12.7307 5.26496 74.3851
257 1 1 -0.834 7.16033 6.85096 56.9415
258 1 1 -0.834 21.1258 14.9012 42.3298
259 1 1 -0.834 2.48446 22.6924 50.6574
260 1 1 -0.834 19.279 13.9918 77.5751
261 1 1 -0.834 24.2024 15.9911 72.4248
262 1 1 -0.834 19.4915 23.4948 5.59994
263 1 1 -0.834 0.759486 2.88812 45.2181
264 1 1 -0.834 16.6706 23.5667 43.9431
265 1 1 -0.834 5.35065 3.40212 70.1167
266 1 1 -0.834 16.7226 1.81623 84.8672
267 1 1 -0.834 12.4605 11.2506 2.63419
268 1 1 -0.834 0.542591 22.8221 29.8755
269 1 1 -0.834 14.7791 20.2567 58.5059
270 1 1 -0.834 11.9939 6.87372 46.2573
271 1 1 -0.834 15.4565 3.4757 26.472
272 1 1 -0.834 18.8298 11.5449 53.826
273 1 1 -0.834 14.1147 18.5034 35.4007
274 1 1 -0.834 19.7176 19.3586 2.58293
275 1 1 -0.834 22.0372 9.03542 38.415
276 1 1 -0.834 0.0815992 18.5435 73.5565
277 1 1 -0.834 23.6778 4.7559 62.3851
278 1 1 -0.834 19.476 6.83983 13.5763
279 1 1 -0.834 1.77842 12.7716 67.8479
280 1 1 -0.834 8.03831 7.71011 75.2977
281 1 1 -0.834 7.2476 8.78594 30.2944
282 1 1 -0.834 4.7565 23.0497 11.269
283 1 1 -0.834 19.3523 5.10395 41.3977
284 1 1 -0.834 20.3096 0.797428 87.4521
285 1 1 -0.834 16.1927 10.574 32.8954
286 1 1 -0.834 20.0892 16.5366 76.9505
287 1 1 -0.834 7.16082 21.3249 12.0143
288 1 1 -0.834 5.62012 9.3195 57.9623
289 1 1 -0.834 21.1355 19.8544 45.6658
290 1 1 -0.834 4.81567 11.1475 66.9481
291 1 1 -0.834 8.79957 2.7816 42.3206
292 1 1 -0.834 12.7443 4.37923 47.57
293 1 1 -0.834 12.4442 12.3967 56.8618
294 1 1 -0.834 19.8383 18.78 48.4647
295 1 1 -0.834 20.6973 24.06 23.3743
296 1 1 -0.834 6.05022 11.9958 57.2548
297 1 1 -0.834 5.29911 18.5008 50.6465
298 1 1 -0.834 17.684 17.6752 9.15269
299 1 1 -0.834 13.1557 16.7744 8.81727
300 1 1 -0.834 10.3524 5.74886 73.2665
301 1 1 -0.834 18.8115 19.9914 52.1025
302 1 1 -0.834 7.95325 22.9383 61.7573
303 1 1 -0.834 23.3062 1.20588 4.59469
304 1 1 -0.834 5.06183 14.9015 48.4918
305 1 1 -0.834 10.0767 24.2825 37.4391
306 1 1 -0.834 0.750322 14.3816 51.2159
307 1 1 -0.834 14.7041 23.3102 85.05
308 1 1 -0.834 23.1696 7.63793 73.4022
309 1 1 -0.834 23.0605 2.49575 51.7423
310 1 1 -0.834 11.368 4.26158 78.3827
311 1 1 -0.834 10.5999 20.9341 45.4903
312 1 1 -0.834 13.4702 19.977 55.6229
313 1 1 -0.834 10.8175 4.72676 24.3062
314 1 1 -0.834 12.1595 18.7941 50.1855
315 1 1 -0.834 7.80399 8.09307 25.4099
316 1 1 -0.834 16.2081 23.6721 82.3372
317 1 1 -0.834 4.18785 9.11539 55.5963
318 1 1 -0.834 23.6742 5.09686 14.4001
319 1 1 -0.834 4.12206 14.4714 22.9876
320 1 1 -0.834 15.9107 7.87761 49.2923
321 1 1 -0.834 18.3384 15.7301 11.0582
322 1 1 -0.834 22.737 14.9818 63.4428
323 1 1 -0.834 0.590501 14.9719 20.1608
324 1 1 -0.834 1.49675 6.04265 53.8953
325 1 1 -0.834 21.9574 7.80237 35.5254
326 1 1 -0.834 21.9782 20.2869 72.5634
327 1 1 -0.834 3.72648 9.23195 71.5378
328 1 1 -0.834 4.41953 4.82346 29.4945
329 1 1 -0.834 6.46383 6.60964 46.2461
330 1 1 -0.834 11.6505 17.0293 52.2241
331 1 1 -0.834 24.1635 7.26737 62.9697
332 1 1 -0.834 17.2608 4.28904 69.3849
333 1 1 -0.834 1.03359 1.60795 35.8288
334 1 1 -0.834 17.6732 10.2287 40.7812
335 1 1 -0.834 8.42881 9.32869 66.5016
336 1 1 -0.834 18.9263 13.0663 56.8515
337 1 1 -0.834 5.2928 11.9383 73.8485
338 1 1 -0.834 18.2624 20.1829 67.6342
339 1 1 -0.834 16.6881 12.5071 59.3025
340 1 1 -0.834 8.35509 21.0162 74.9875
341 1 1 -0.834 3.66352 12.1953 45.8664
342 1 1 -0.834 13.5826 15.147 31.3021
343 1 1 -0.834 8.11787 12.7379 43.5274
344 1 1 -0.834 24.3767 12.1766 40.3842
345 1 1 -0.834 2.03405 21.2252 65.1196
346 1 1 -0.834 9.3835 18.6959 41.7801
347 1 1 -0.834 18.9969 20.7768 5.98195
348 1 1 -0.834 0.705381 20.4699 67.6737
349 1 1 -0.834 3.52422 5.3493 12.4963
350 1 1 -0.834 9.44743 23.101 11.6952
351 1 1 -0.834 3.32463 0.968384 75.9068
352 1 1 -0.834 8.67714 17.0447 39.3996
353 1 1 -0.834 2.66216 21.9774 47.0303
354 1 1 -0.834 22.2528 19.1729 42.3505
355 1 1 -0.834 20.5619 22.1282 87.4795
356 1 1 -0.834 2.1519 9.23896 45.0709
357 1 1 -0.834 0.471988 17.8879 22.413
358 1 1 -0.834 21.0394 2.17152 49.2692
359 1 1 -0.834 12.6906 12.8641 65.8595
360 1 1 -0.834 12.3767 16.0077 81.0112
361 1 1 -0.834 10.8056 19.074 61.2776
362 1 1 -0.834 2.02088 9.02943 57.2625
363 1 1 -0.834 12.0544 20.8994 16.7678
364 1 1 -0.834 17.7806 24.09 25.4342
365 1 1 -0.834 20.0783 21.0537 28.8037
366 1 1 -0.834 20.4349 12.3479 36.9668
367 1 1 -0.834 2.59069 18.1431 70.5681
368 1 1 -0.834 23.3093 22.3726 66.5299
369 1 1 -0.834 0.293397 19.7961 43.1609
370 1 1 -0.834 8.57966 8.18856 63.1455
371 1 1 -0.834 1.26824 21.1703 73.637
372 1 1 -0.834 1.11892 4.57278 36.8929
373 1 1 -0.834 4.96255 1.71986 31.3215
374 1 1 -0.834 2.37819 5.13043 67.6696
375 1 1 -0.834 19.4017 18.8041 72.2788
376 1 1 -0.834 14.5925 23.5728 47.5548
377 1 1 -0.834 1.17406 16.58 78.7397
378 1 1 -0.834 13.1041 7.90271 64.3296
379 1 1 -0.834 10.052 3.18057 70.1539
380 1 1 -0.834 19.382 14.7346 34.977
381 1 1 -0.834 23.1565 24.2452 8.05674
382 1 1 -0.834 5.49723 19.3042 53.6925
383 1 1 -0.834 16.4886 2.95893 78.4901
384 1 1 -0.834 23.8381 15.1059 84.8365
385 1 1 -0.834 12.1687 9.85285 31.1504
386 1 1 -0.834 7.62743 22.8931 81.313
387 1 1 -0.834 9.8011 9.61385 4.12493
388 1 1 -0.834 11.9281 8.0563 57.1168
389 1 1 -0.834 7.55478 15.7627 46.1384
390 1 1 -0.834 7.8817 22.4524 50.2456
391 1 1 -0.834 14.9076 0.0543641 68.6752
392 1 1 -0.834 3.85552 17.3815 22.0933
393 1 1 -0.834 22.6018 12.8989 81.196
394 1 1 -0.834 15.6004 13.4942 45.5249
395 1 1 -0.834 11.5197 13.4963 32.2709
396 1 1 -0.834 23.1705 21.5723 70.3336
397 1 1 -0.834 19.8356 6.19662 17.5043
398 1 1 -0.834 10.7805 14.8407 60.5649
399 1 1 -0.834 0.687125 24.0316 47.4719
400 1 1 -0.834 22.5447 6.02784 39.5441
401 1 1 -0.834 4.58318 7.64253 30.3083
402 1 1 -0.834 2.25869 5.61493 81.7233
403 1 1 -0.834 4.9804 23.3145 36.4438
404 1 1 -0.834 7.54766 3.76805 9.41737
405 1 1 -0.834 1.42162 22.8834 69.1686
406 1 1 -0.834 4.7545 16.9885 81.6028
407 1 1 -0.834 17.0736 0.979511 52.3331
408 1 1 -0.834 16.7382 20.6906 65.2982
409 1 1 -0.834 6.90801 4.92612 73.0422
410 1 1 -0.834 11.3518 5.48269 2.02858
411 1 1 -0.834 11.2906 9.36526 87.6081
412 1 1 -0.834 16.4309 22.0468 69.3424
413 1 1 -0.834 6.21348 20.7087 61.3234
414 1 1 -0.834 13.1519 18.134 62.7782
415 1 1 -0.834 18.6259 18.1822 28.8506
416 1 1 -0.834 17.5819 21.0677 45.7141
417 1 1 -0.834 22.4106 15.5171 55.8159
418 1 1 -0.834 2.78449 7.45021 32.5398
419 1 1 -0.834 22.1237 6.48058 55.9545
420 1 1 -0.834 19.1628 12.3481 16.5737
421 1 1 -0.834 5.84628 7.40581 79.5788
422 1 1 -0.834 18.3503 0.50994 49.9026
423 1 1 -0.834 21.5625 8.30231 75.5782
424 1 1 -0.834 2.4925 19.3513 57.3883
425 1 1 -0.834 15.3828 22.8648 20.4321
426 1 1 -0.834 3.19569 4.3499 63.0642
427 1 1 -0.834 0.840911 4.91307 72.5164
428 1 1 -0.834 17.128 19.1306 70.2075
429 1 1 -0.834 13.3923 5.6666 18.6672
430 1 1 -0.834 16.0519 15.7669 52.7009
431 1 1 -0.834 20.6148 19.2295 53.8831
432 1 1 -0.834 11.0247 18.5307 58.4775
433 1 1 -0.834 18.7164 10.866 80.3511
434 1 1 -0.834 17.9977 10.7914 11.7882
435 1 1 -0.834 15.6515 2.09943 75.1133
436 1 1 -0.834 11.0129 4.86252 43.798
437 1 1 -0.834 8.31724 12.8393 26.1578
438 1 1 -0.834 14.2485 21.6079 15.3793
439 1 1 -0.834 14.8232 13.3257 34.8746
440 1 1 -0.834 2.65322 13.0579 42.579
441 1 1 -0.834 21.2339 21.0934 61.9148
442 1 1 -0.834 11.4477 17.8614 39.9986
443 1 1 -0.834 11.1328 13.5061 7.15582
444 1 1 -0.834 7.25621 11.2912 52.9604
445 1 1 -0.834 22.9157 12.8303 19.1985
446 1 1 -0.834 21.3361 13.1316 14.5727
447 1 1 -0.834 1.12424 5.43691 9.01962
448 1 1 -0.834 18.8252 2.57381 23.4864
449 1 1 -0.834 2.11167 17.6588 43.0812
450 1 1 -0.834 24.3908 3.18619 56.3421
451 1 1 -0.834 24.2365 6.29843 80.521
452 1 1 -0.834 22.2492 14.0574 70.4966
453 1 1 -0.834 5.92081 10.6938 1.38198
454 1 1 -0.834 22.3194 23.8202 68.9532
455 1 1 -0.834 11.0672 2.49285 81.0709
456 1 1 -0.834 23.692 7.76442 18.357
457 1 1 -0.834 3.02982 3.06197 79.9175
458 1 1 -0.834 18.8123 7.08727 71.2172
459 1 1 -0.834 17.0179 6.85469 52.7213
460 1 1 -0.834 17.4496 10.4674 37.0294
461 1 1 -0.834 16.4858 9.37431 15.6763
462 1 1 -0.834 18.9704 14.3217 32.3007
463 1 1 -0.834 17.6156 13.2521 47.4432
464 1 1 -0.834 4.00601 20.227 76.0028
465 1 1 -0.834 8.90023 0.250855 52.1178
466 1 1 -0.834 7.64074 18.0315 17.4949
467 1 1 -0.834 13.2152 6.41339 52.9052
468 1 1 -0.834 23.1265 8.78146 54.0133
469 1 1 -0.834 11.8044 24.398 15.0535
470 1 1 -0.834 14.931 16.4375 77.564
471 1 1 -0.834 24.3124 23.9097 55.2752
472 1 1 -0.834 14.2552 5.69238 43.6763
473 1 1 -0.834 17.6991 15.4991 75.4543
474 1 1 -0.834 21.2669 0.292125 64.5204
475 1 1 -0.834 9.0701 8.8369 8.04732
476 1 1 -0.834 7.43145 10.851 68.5689
477 1 1 -0.834 9.52426 1.62331 47.2409
478 1 1 -0.834 13.3124 1.4063 58.689
479 1 1 -0.834 10.9932 9.48633 65.5988
480 1 1 -0.834 3.92763 11.0203 48.2846
481 1 1 -0.834 2.52894 24.2242 31.6136
482 1 1 -0.834 0.788818 3.48009 6.96242
483 1 1 -0.834 8.96771 8.53822 69.1955
484 1 1 -0.834 13.8095 14.1628 5.44748
485 1 1 -0.834 17.2429 20.5008 3.13151
486 1 1 -0.834 1.31863 15.4551 24.5792
487 1 1 -0.834 7.54585 0.671036 11.5816
488 1 1 -0.834 9.84825 11.5387 59.1842
489 1 1 -0.834 10.0181 8.60752 47.989
490 1 1 -0.834 14.4287 23.5135 22.8336
491 1 1 -0.834 14.6555 6.00941 61.7285
492 1 1 -0.834 20.3043 2.97594 21.1215
493 1 1 -0.834 22.7977 23.4478 31.3294
494 1 1 -0.834 23.1669 20.7097 77.8504
495 1 1 -0.834 20.1833 5.28508 63.6098
496 1 1 -0.834 12.5267 1.63953 47.6478
497 1 1 -0.834 10.8603 8.67197 77.0843
498 1 1 -0.834 15.7466 3.25292 61.9397
499 1 1 -0.834 14.4804 4.59327 58.7691
500 1 1 -0.834 8.26352 17.8929 44.2679
501 1 1 -0.834 12.5677 2.77495 54.8708
502 1 1 -0.834 12.3503 19.3773 79.576
503 1 1 -0.834 22.7224 11.1105 68.9159
504 1 1 -0.834 22.8384 7.24063 11.7881
505 1 1 -0.834 5.30672 16.4967 76.2747
506 1 1 -0.834 4.87318 4.34469 58.6841
507 1 1 -0.834 10.7618 7.24422 67.1361
508 1 1 -0.834 5.34558 12.6755 86.1307
509 1 1 -0.834 12.0313 10.164 79.1013
510 1 1 -0.834 7.54446 3.37321 63.6403
511 1 1 -0.834 2.55377 14.5561 54.7438
512 1 1 -0.834 14.7999 7.49573 20.3271
513 1 1 -0.834 19.297 3.79814 67.8049
514 1 1 -0.834 17.374 16.062 36.1708
515 1 1 -0.834 7.81052 23.0713 35.6034
516 1 1 -0.834 14.0495 2.98961 77.1367
517 1 1 -0.834 4.9578 1.06245 6.42475
518 1 1 -0.834 17.6879 4.68371 45.8262
519 1 1 -0.834 1.29207 15.1291 44.0254
520 1 1 -0.834 23.8097 14.4519 57.8446
521 1 1 -0.834 15.5235 17.9649 68.0878
522 1 1 -0.834 23.5518 20.892 25.1138
523 1 1 -0.834 0.715528 8.22423 71.5605
524 1 1 -0.834 6.23068 1.57441 58.5414
525 1 1 -0.834 19.9405 10.6958 39.4055
526 1 1 -0.834 9.59296 0.196443 42.2355
527 1 1 -0.834 14.9628 21.046 71.6329
528 1 1 -0.834 9.22308 24.4036 69.2636
529 1 1 -0.834 21.4826 6.88057 70.9187
530 1 1 -0.834 22.6273 7.91961 82.7517
531 1 1 -0.834 23.6712 11.7886 75.1277
532 1 1 -0.834 2.55454 11.7368 85.1157
533 1 1 -0.834 11.2237 14.2978 51.2812
534 1 1 -0.834 16.5462 19.5319 30.4994
535 1 1 -0.834 7.23086 4.11331 6.66599
536 1 1 -0.834 5.9711 10.2412 61.9083
537 1 1 -0.834 0.31813 9.95178 62.3894
538 1 1 -0.834 10.4794 0.75925 71.518
539 1 1 -0.834 10.8944 2.96622 22.1133
540 1 1 -0.834 2.93035 6.27079 45.6215
541 1 1 -0.834 16.2493 4.45166 51.3459
542 1 1 -0.834 22.5405 21.5285 27.629
543 1 1 -0.834 14.4912 8.50595 73.2498
544 1 1 -0.834 6.51422 21.7864 52.9302
545 1 1 -0.834 19.7905 21.2966 59.4837
546 1 1 -0.834 4.49946 21.1075 66.563
547 1 1 -0.834 16.0424 23.4331 66.2765
548 1 1 -0.834 16.7906 12.7215 67.0298
549 1 1 -0.834 8.99383 1.36006 65.7054
550 1 1 -0.834 0.38581 4.53625 33.4167
551 1 1 -0.834 1.72234 8.14677 60.2395
552 1 1 -0.834 20.8699 9.45955 78.3109
553 1 1 -0.834 20.3226 10.8386 63.381
554 1 1 -0.834 5.52117 19.1993 68.3136
555 1 1 -0.834 12.4152 0.0543643 84.4175
556 1 1 -0.834 12.3788 10.5286 59.4535
557 1 1 -0.834 14.7931 14.557 67.1337
558 1 1 -0.834 2.81082 21.3216 54.2698
559 1 1 -0.834 8.57928 10.4645 50.87
560 1 1 -0.834 16.1305 5.82812 81.9895
561 1 1 -0.834 16.4453 15.4184 5.56276
562 1 1 -0.834 2.64704 22.7095 78.8905
563 1 1 -0.834 2.44997 2.66943 73.1373
564 1 1 -0.834 19.2397 10.2636 66.962
565 1 1 -0.834 19.5607 17.6094 79.8886
566 1 1 -0.834 13.6752 19.1995 74.0025
567 1 1 -0.834 6.03067 1.07223 74.7941
568 1 1 -0.834 9.28842 6.76038 59.0237
569 1 1 -0.834 5.4717 9.3199 64.4609
570 1 1 -0.834 15.952 9.17287 46.825
571 1 1 -0.834 8.0393 10.8242 28.7554
572 1 1 -0.834 2.60417 8.68833 41.9597
573 1 1 -0.834 3.21476 4.58233 70.8617
574 1 1 -0.834 13.7485 19.3951 38.3152
575 1 1 -0.834 10.2847 21.1943 42.6679
576 1 1 -0.834 19.8963 23.9761 45.3547
577 1 1 -0.834 20.7948 0.817173 60.2735
578 1 1 -0.834 0.358063 19.1554 63.7435
579 1 1 -0.834 19.4795 18.2886 7.37819
580 1 1 -0.834 1.37329 0.570965 8.60662
581 1 1 -0.834 19.5996 20.505 79.678
582 1 1 -0.834 19.4277 23.6159 30.0003
583 1 1 -0.834 5.60576 23.049 71.1693
584 1 1 -0.834 8.65107 4.59423 26.8668
585 1 1 -0.834 10.4539 4.01649 46.3557
586 1 1 -0.834 11.5346 22.9864 46.9028
587 1 1 -0.834 16.707 5.14092 55.1813
588 1 1 -0.834 8.04344 22.07 44.4402
589 1 1 -0.834 20.7462 7.96128 40.9498
590 1 1 -0.834 7.94755 12.7788 74.4579
591 1 1 -0.834 20.1769 14.8476 8.68929
592 1 1 -0.834 16.4629 7.0439 69.5143
593 1 1 -0.834 1.45991 13.6201 46.6586
594 1 1 -0.834 11.8624 22.0767 70.3819
595 1 1 -0.834 16.6631 2.79944 81.3616
596 1 1 -0.834 22.693 17.9112 86.6371
597 1 1 -0.834 9.38491 20.1635 18.4798
598 1 1 -0.834 14.951 23.5676 53.6904
599 1 1 -0.834 7.27536 10.0309 6.51468
600 1 1 -0.834 18.8006 3.86174 52.8963
601 1 1 -0.834 20.0274 2.62468 79.6835
602 1 1 -0.834 16.8063 21.1241 56.8284
603 1 1 -0.834 8.17564 18.9989 15.0922
604 1 1 -0.834 23.6491 8.07063 49.5091
605 1 1 -0.834 6.85405 15.5555 85.432
606 1 1 -0.834 12.953 14.4795 44.9516
607 1 1 -0.834 17.6925 12.407 34.6906
608 1 1 -0.834 14.0326 22.6538 80.2939
609 1 1 -0.834 22.9525 4.30403 67.7093
610 1 1 -0.834 15.2114 3.86504 46.5731
611 1 1 -0.834 6.14085 6.35737 60.299
612 1 1 -0.834 22.4861 6.68476 16.1154
613 1 1 -0.834 8.78358 10.0755 57.0618
614 1 1 -0.834 8.75831 22.4052 19.9857
615 1 1 -0.834 6.77309 11.4493 3.8745
616 1 1 -0.834 16.4476 8.71609 38.9446
617 1 1 -0.834 10.9311 21.3685 51.9799
618 1 1 -0.834 5.10945 21.0575 14.0367
619 1 1 -0.834 3.81547 16.2674 60.2672
620 1 1 -0.834 13.1352 9.77048 47.7165
621 1 1 -0.834 7.93881 4.62821 69.3337
622 1 1 -0.834 0.808387 6.0345 31.2554
623 1 1 -0.834 10.9971 16.551 78.7907
624 1 1 -0.834 12.2325 19.032 47.2332
625 1 1 -0.834 18.7146 22.1392 42.8684
626 1 1 -0.834 18.4415 14.4848 68.3364
627 1 1 -0.834 23.9965 17.3109 25.8389
628 1 1 -0.834 22.0185 17.6008 59.2683
629 1 1 -0.834 3.49037 12.591 19.3953
630 1 1 -0.834 7.25738 15.0186 82.7361
631 1 1 -0.834 14.9431 3.86387 53.6077
632 1 1 -0.834 12.2551 23.827 67.5649
633 1 1 -0.834 10.4355 11.8677 54.83
634 1 1 -0.834 12.075 23.0238 41.6883
635 1 1 -0.834 18.4409 19.1032 26.047
636 1 1 -0.834 14.0334 13.9181 54.0707
637 1 1 -0.834 0.547309 0.401164 33.2696
638 1 1 -0.834 6.78349 19.8449 58.7106
639 1 1 -0.834 10.6202 3.0637 67.4706
640 1 1 -0.834 23.106 10.9881 13.1426
641 1 1 -0.834 2.80623 12.9408 63.6874
642 1 1 -0.834 10.6349 17.3523 11.4663
643 1 1 -0.834 20.4735 22.0139 32.1182
644 1 1 -0.834 10.0734 6.72238 86.7483
645 1 1 -0.834 5.49463 5.27082 10.6835
646 1 1 -0.834 8.02229 3.15609 60.3833
647 1 1 -0.834 8.53122 11.6481 48.3505
648 1 1 -0.834 13.5351 16.1524 59.1952
649 1 1 -0.834 0.112089 8.53996 36.5372
650 1 1 -0.834 0.611948 2.30394 53.818
651 1 1 -0.834 2.60762 22.636 75.8044
652 1 1 -0.834 21.1676 2.40624 57.9128
653 1 1 -0.834 10.0695 11.894 0.881957
654 1 1 -0.834 4.3034 5.81396 51.5793
655 1 1 -0.834 20.9619 5.832 68.5131
656 1 1 -0.834 0.396283 8.88525 79.6803
657 1 1 -0.834 9.64185 19.5583 80.3127
658 1 1 -0.834 2.61083 4.27835 57.2731
659 1 1 -0.834 3.08194 15.0913 57.4058
660 1 1 -0.834 13.7474 19.6843 65.1258
661 1 1 -0.834 12.5962 24.1634 74.5181
662 1 1 -0.834 1.12359 22.9237 5.69339
663 1 1 -0.834 23.6315 23.7263 50.7687
664 1 1 -0.834 5.31899 10.8116 77.0295
665 1 1 -0.834 22.6294 3.97599 71.8542
666 1 1 -0.834 19.9494 20.0785 74.6453
667 1 1 -0.834 9.74409 10.102 26.8364
668 1 1 -0.834 10.4588 5.81093 29.0113
669 1 1 -0.834 23.9493 6.45729 42.9282
670 1 1 -0.834 15.1392 17.6361 51.0134
671 1 1 -0.834 4.53777 3.23476 77.129
672 1 1 -0.834 0.317192 6.39848 69.6574
673 1 1 -0.834 13.4872 15.0583 11.6421
674 1 1 -0.834 7.76791 13.1234 87.1419
675 1 1 -0.834 7.28342 0.381658 48.222
676 1 1 -0.834 12.5259 7.873 43.3637
677 1 1 -0.834 14.6458 10.7839 63.4855
678 1 1 -0.834 19.3358 21.2119 49.834
679 1 1 -0.834 0.420527 2.06035 48.4199
680 1 1 -0.834 5.83694 17.2994 63.0988
681 1 1 -0.834 21.1419 14.4546 53.5533
682 1 1 -0.834 2.57394 22.8397 57.4256
683 1 1 -0.834 12.0725 10.9967 7.87804
684 1 1 -0.834 0.745434 16.9311 58.117
685 1 1 -0.834 21.6505 8.65328 13.8843
686 1 1 -0.834 20.181 16.8527 61.9303
687 1 1 -0.834 3.55469 0.948296 60.9799
688 1 1 -0.834 23.2641 22.4621 74.1461
689 1 1 -0.834 2.06159 4.73908 49.7194
690 1 1 -0.834 0.0300387 9.35942 41.7475
691 1 1 -0.834 11.0004 16.1972 63.6573
692 1 1 -0.834 12.1164 22.6789 58.3173
693 1 1 -0.834 5.51711 18.0888 40.8378
694 1 1 -0.834 1.82107 16.694 47.0586
695 1 1 -0.834 10.9277 22.1158 79.8837
696 1 1 -0.834 21.1603 3.88071 44.753
697 1 1 -0.834 2.51349 20.0349 51.6562
698 1 1 -0.834 17.7621 14.7197 62.2577
699 1 1 -0.834 19.0131 3.89214 58.6777
700 1 1 -0.834 12.9465 8.29377 29.0198
701 1 1 -0.834 6.86207 4.43124 30.66
702 1 1 -0.834 13.0724 6.10453 55.6524
703 1 1 -0.834 1.23139 12.3886 21.4368
704 1 1 -0.834 12.8779 3.27986 60.8716
705 1 1 -0.834 18.0891 14.5364 81.3153
706 1 1 -0.834 15.0275 24.4087 50.1474
707 1 1 -0.834 20.3714 12.3988 11.2143
708 1 1 -0.834 6.86463 17.7386 48.385
709 1 1 -0.834 20.5604 12.8213 79.5474
710 1 1 -0.834 12.9755 6.10965 85.5977
711 1 1 -0.834 20.5103 15.4831 49.0027
712 1 1 -0.834 11.167 6.04957 61.7006
713 1 1 -0.834 16.1454 0.0874158 62.5902
714 1 1 -0.834 3.30903 9.73265 79.0923
715 1 1 -0.834 19.5092 6.94445 46.2259
716 1 1 -0.834 7.86958 9.01575 60.003
717 1 1 -0.834 17.7686 21.5567 54.1375
718 1 1 -0.834 14.449 20.2955 69.0309
719 1 1 -0.834 12.7004 18.1584 44.6341
720 1 1 -0.834 20.9441 1.34426 66.892
721 1 1 -0.834 11.531 2.19852 73.972
722 1 1 -0.834 2.25026 1.69282 5.3734
723 1 1 -0.834 14.8232 7.00835 66.533
724 1 1 -0.834 22.1661 17.6833 71.5858
725 1 1 -0.834 11.2428 18.1932 17.4408
726 1 1 -0.834 9.8067 5.13652 53.5989
727 1 1 -0.834 6.07252 22.03 78.5697
728 1 1 -0.834 15.6262 18.0271 64.3816
729 1 1 -0.834 18.6066 22.9619 57.8989
730 1 1 -0.834 10.7957 15.8396 33.6832
731 1 1 -0.834 23.3463 0.170256 60.5705
732 1 1 -0.834 8.38681 19.9403 65.4324
733 1 1 -0.834 9.85989 20.8948 35.6671
734 1 1 -0.834 7.55753 4.42624 76.302
735 1 1 -0.834 16.7153 22.1285 28.1884
736 1 1 -0.834 4.59049 6.54888 72.2092
737 1 1 -0.834 6.98789 3.59189 45.8422
738 1 1 -0.834 16.4749 2.27066 59.2354
739 1 1 -0.834 22.2979 12.6252 43.4275
740 1 1 -0.834 14.8041 3.04399 21.431
741 1 1 -0.834 17.543 9.14059 72.8387
742 1 1 -0.834 24.3315 22.6968 79.387
743 1 1 -0.834 3.25513 15.3811 1.79589
744 1 1 -0.834 17.3301 12.7326 78.8993
745 1 1 -0.834 6.79101 7.84255 3.22685
746 1 1 -0.834 11.9915 22.3997 82.2274
747 1 1 -0.834 17.4972 17.2452 33.574
748 1 1 -0.834 7.13907 6.74478 52.4478
749 1 1 -0.834 20.7436 6.2559 43.2928
750 1 1 -0.834 20.6135 10.7982 18.4326
751 1 1 -0.834 19.8882 21.1494 70.4649
752 1 1 -0.834 1.39228 9.33132 14.062
753 1 1 -0.834 4.26239 19.3396 73.5188
754 1 1 -0.834 15.9331 0.00578838 78.7988
755 1 1 -0.834 10.5275 7.51623 26.7439
756 1 1 -0.834 9.75725 19.818 48.74
757 1 1 -0.834 18.0442 7.49178 82.9226
758 1 1 -0.834 12.7278 6.85154 59.4263
759 1 1 -0.834 5.53843 7.13315 69.7041
760 1 1 -0.834 11.026 18.3834 35.106
761 1 1 -0.834 15.7305 7.98076 85.3997
762 1 1 -0.834 6.96992 11.3549 79.7075
763 1 1 -0.834 13.7035 1.56834 70.8705
764 1 1 -0.834 7.86357 9.54251 77.5895
765 1 1 -0.834 21.8403 19.5579 0.773116
766 1 1 -0.834 23.6769 18.8112 56.5861
767 1 1 -0.834 13.0555 13.9875 74.047
768 1 1 -0.834 24.0391 22.9904 0.372684