ITEM: TIMESTEP
500000
ITEM: NUMBER OF ATOMS
4761
ITEM: BOX BOUNDS pp pp pp
0.0000000000000000e+00 2.4433001000000001e+01
0.0000000000000000e+00 2.4433001000000001e+01
0.0000000000000000e+00 8.6882897779454566e+01
ITEM: ATOMS id mol type q x y z 
1 1 1 -0.834 23.7706 1.75605 5.61395 
2 1 1 -0.834 0.640686 20.7755 76.1805 
3 1 1 -0.834 7.07569 0.816173 55.0596 
4 1 1 -0.834 2.79324 12.5671 57.8435 
5 1 1 -0.834 1.23357 18.2336 47.9963 
6 1 1 -0.834 15.6845 7.65272 79.1443 
7 1 1 -0.834 1.82612 24.2468 50.6865 
8 1 1 -0.834 17.4884 18.5724 7.87526 
9 1 1 -0.834 8.37437 6.52601 2.46391 
10 1 1 -0.834 5.60234 20.1883 78.2355 
11 1 1 -0.834 6.63597 8.1117 57.8565 
12 1 1 -0.834 8.7736 18.6655 58.2554 
13 1 1 -0.834 6.81572 11.7696 67.5607 
14 1 1 -0.834 6.52589 13.1788 57.3365 
15 1 1 -0.834 5.84967 8.45543 65.4795 
16 1 1 -0.834 2.8609 17.7739 58.9772 
17 1 1 -0.834 11.7847 9.56271 30.7213 
18 1 1 -0.834 11.1547 7.39304 53.5925 
19 1 1 -0.834 20.9595 1.16779 27.7866 
20 1 1 -0.834 16.2877 0.0890274 56.9721 
21 1 1 -0.834 6.01845 2.85566 9.13575 
22 1 1 -0.834 10.4042 7.87126 64.4128 
23 1 1 -0.834 16.5142 9.1341 75.8468 
24 1 1 -0.834 20.9484 8.96953 45.458 
25 1 1 -0.834 13.8381 7.74751 77.131 
26 1 1 -0.834 8.0967 23.4581 73.7055 
27 1 1 -0.834 6.87564 14.1312 83.193 
28 1 1 -0.834 1.00153 19.3745 84.7016 
29 1 1 -0.834 14.1878 18.4951 79.9233 
30 1 1 -0.834 4.75623 18.8586 70.5373 
31 1 1 -0.834 4.87916 11.7081 77.5632 
32 1 1 -0.834 20.304 1.18466 24.6536 
33 1 1 -0.834 10.0509 18.1555 40.665 
34 1 1 -0.834 16.1248 1.62057 78.4254 
35 1 1 -0.834 18.3202 2.66362 75.5098 
36 1 1 -0.834 0.445418 19.7852 1.3831 
37 1 1 -0.834 21.7258 11.4267 79.2863 
38 1 1 -0.834 19.464 17.0581 6.3665 
39 1 1 -0.834 6.85317 11.2407 45.3203 
40 1 1 -0.834 8.12845 19.3433 81.02 
41 1 1 -0.834 14.8382 18.591 71.9688 
42 1 1 -0.834 3.60194 13.3336 60.325 
43 1 1 -0.834 0.44428 22.2626 51.8795 
44 1 1 -0.834 23.2801 13.2491 82.416 
45 1 1 -0.834 19.8919 16.9502 52.0941 
46 1 1 -0.834 1.24096 2.35329 51.8244 
47 1 1 -0.834 16.4693 13.6253 37.8464 
48 1 1 -0.834 11.9846 15.5673 60.1948 
49 1 1 -0.834 13.6837 9.3118 74.8364 
50 1 1 -0.834 10.3393 20.9442 80.3257 
51 1 1 -0.834 24.3367 5.96237 46.3474 
52 1 1 -0.834 13.0419 4.90201 1.20121 
53 1 1 -0.834 23.488 8.33817 80.4547 
54 1 1 -0.834 17.8755 0.713921 19.3891 
55 1 1 -0.834 10.4046 14.9046 66.006 
56 1 1 -0.834 8.5887 20.5112 40.5051 
57 1 1 -0.834 14.0886 22.3688 65.4319 
58 1 1 -0.834 19.5146 7.94649 75.8999 
59 1 1 -0.834 6.84243 7.17951 0.112392 
60 1 1 -0.834 7.9005 5.43453 43.5981 
61 1 1 -0.834 12.7041 13.8773 48.3066 
62 1 1 -0.834 14.9861 0.346698 62.8741 
63 1 1 -0.834 22.8489 6.85063 18.4425 
64 1 1 -0.834 2.96734 3.18889 46.4635 
65 1 1 -0.834 16.9057 23.1715 25.4881 
66 1 1 -0.834 22.9273 14.3895 21.7349 
67 1 1 -0.834 5.76134 10.83 58.9073 
68 1 1 -0.834 19.1125 16.7766 31.9417 
69 1 1 -0.834 5.24953 19.1782 80.881 
70 1 1 -0.834 23.6604 22.0993 86.5328 
71 1 1 -0.834 16.1647 3.66396 72.2314 
72 1 1 -0.834 15.2604 22.2652 54.9959 
73 1 1 -0.834 21.9519 19.6579 27.5636 
74 1 1 -0.834 9.65503 8.98611 39.7942 
75 1 1 -0.834 12.8293 7.45959 61.6353 
76 1 1 -0.834 17.5151 6.65146 84.272 
77 1 1 -0.834 11.1795 3.34995 58.0696 
78 1 1 -0.834 11.8157 5.30617 49.6449 
79 1 1 -0.834 11.0055 24.2237 14.4817 
80 1 1 -0.834 7.32456 0.0942057 41.2723 
81 1 1 -0.834 11.7366 13.087 57.1252 
82 1 1 -0.834 4.39456 16.2944 50.4471 
83 1 1 -0.834 2.66165 17.9685 24.8582 
84 1 1 -0.834 19.8478 8.81936 65.2681 
85 1 1 -0.834 13.5658 3.1949 42.0426 
86 1 1 -0.834 0.462191 2.33521 54.5072 
87 1 1 -0.834 22.4107 0.32721 70.1776 
88 1 1 -0.834 22.0308 0.454749 50.2295 
89 1 1 -0.834 13.8475 10.3511 64.1287 
90 1 1 -0.834 14.3281 16.6567 77.8346 
91 1 1 -0.834 22.7603 6.97578 69.0062 
92 1 1 -0.834 10.52 14.9521 71.5211 
93 1 1 -0.834 22.7127 20.3437 57.314 
94 1 1 -0.834 19.9495 5.13633 44.9773 
95 1 1 -0.834 1.5348 19.3777 50.8655 
96 1 1 -0.834 10.3013 10.0348 52.3012 
97 1 1 -0.834 0.2102 16.774 83.9739 
98 1 1 -0.834 12.4529 10.4011 72.0825 
99 1 1 -0.834 23.4901 21.0168 63.444 
100 1 1 -0.834 5.56274 5.25454 66.4709 
101 1 1 -0.834 3.41514 11.4978 55.3445 
102 1 1 -0.834 22.14 7.7313 66.0895 
103 1 1 -0.834 3.12765 7.39745 54.1599 
104 1 1 -0.834 6.69424 23.2457 35.2801 
105 1 1 -0.834 14.5029 14.5712 31.3896 
106 1 1 -0.834 5.26873 15.0752 17.7636 
107 1 1 -0.834 13.5882 0.948876 50.1651 
108 1 1 -0.834 0.768395 2.4155 9.61279 
109 1 1 -0.834 21.4757 5.22373 66.9224 
110 1 1 -0.834 6.76321 0.352401 49.6924 
111 1 1 -0.834 22.8145 0.509057 78.8701 
112 1 1 -0.834 22.0921 9.15701 52.2117 
113 1 1 -0.834 6.1656 19.2356 14.6602 
114 1 1 -0.834 13.2113 6.74561 69.4991 
115 1 1 -0.834 2.17876 4.03248 36.1834 
116 1 1 -0.834 7.06666 18.627 36.9991 
117 1 1 -0.834 15.4536 15.3242 49.1108 
118 1 1 -0.834 11.6494 4.81408 45.4914 
119 1 1 -0.834 0.451061 7.20915 56.824 
120 1 1 -0.834 11.3113 9.22562 55.7867 
121 1 1 -0.834 5.19662 7.78146 78.4551 
122 1 1 -0.834 13.1578 8.34945 1.00374 
123 1 1 -0.834 18.5698 4.21121 19.1948 
124 1 1 -0.834 15.3955 8.67737 69.864 
125 1 1 -0.834 9.28305 8.84666 43.997 
126 1 1 -0.834 19.408 1.38604 0.664463 
127 1 1 -0.834 4.94414 14.2725 62.9225 
128 1 1 -0.834 22.6886 11.3326 12.2448 
129 1 1 -0.834 20.9949 10.2332 56.6347 
130 1 1 -0.834 7.44984 8.21668 29.529 
131 1 1 -0.834 17.0316 23.1157 64.5489 
132 1 1 -0.834 14.4081 19.8394 32.2858 
133 1 1 -0.834 19.7214 5.26043 59.8653 
134 1 1 -0.834 19.915 6.06923 17.3557 
135 1 1 -0.834 22.3346 0.139575 67.3781 
136 1 1 -0.834 2.39859 3.73417 4.71969 
137 1 1 -0.834 23.8784 22.2654 5.78658 
138 1 1 -0.834 15.2575 24.0059 51.8899 
139 1 1 -0.834 23.0845 18.764 66.582 
140 1 1 -0.834 11.0598 17.4289 15.0128 
141 1 1 -0.834 17.7598 6.69171 77.4816 
142 1 1 -0.834 2.08941 12.9023 86.0549 
143 1 1 -0.834 11.4403 16.9859 33.0442 
144 1 1 -0.834 0.976922 16.4664 67.583 
145 1 1 -0.834 4.17121 9.62607 27.5793 
146 1 1 -0.834 6.94045 13.9548 54.4434 
147 1 1 -0.834 10.3823 13.5439 5.48489 
148 1 1 -0.834 10.2756 9.0024 23.9482 
149 1 1 -0.834 20.4191 12.7872 60.2214 
150 1 1 -0.834 2.45644 22.7921 75.4689 
151 1 1 -0.834 16.4554 22.6533 43.6961 
152 1 1 -0.834 11.3871 9.67178 62.3369 
153 1 1 -0.834 3.78028 21.3353 58.9625 
154 1 1 -0.834 3.2392 15.5531 26.376 
155 1 1 -0.834 4.27208 16.4671 47.669 
156 1 1 -0.834 13.6277 2.07619 22.5288 
157 1 1 -0.834 12.9695 20.2576 70.904 
158 1 1 -0.834 16.1429 12.41 66.49 
159 1 1 -0.834 3.05427 21.7286 62.8574 
160 1 1 -0.834 6.81208 18.8808 51.2124 
161 1 1 -0.834 7.60904 16.4408 52.5149 
162 1 1 -0.834 11.9688 16.4189 36.0532 
163 1 1 -0.834 9.95443 17.218 73.0629 
164 1 1 -0.834 5.28056 4.92803 44.3675 
165 1 1 -0.834 13.3568 11.2838 27.8158 
166 1 1 -0.834 12.801 0.956034 69.362 
167 1 1 -0.834 4.13798 21.4123 47.5164 
168 1 1 -0.834 5.7718 7.14162 3.55147 
169 1 1 -0.834 16.6884 13.7345 57.8517 
170 1 1 -0.834 13.742 2.93133 78.4804 
171 1 1 -0.834 7.44694 22.2616 12.7566 
172 1 1 -0.834 0.23484 10.6947 59.9126 
173 1 1 -0.834 4.4394 12.9099 1.15052 
174 1 1 -0.834 15.0564 12.6591 45.2022 
175 1 1 -0.834 7.68162 14.8035 50.3904 
176 1 1 -0.834 12.9199 14.0434 77.28 
177 1 1 -0.834 10.2071 23.63 47.9232 
178 1 1 -0.834 7.53114 2.46916 47.759 
179 1 1 -0.834 8.63841 20.6471 77.578 
180 1 1 -0.834 0.23164 1.99 36.1425 
181 1 1 -0.834 22.6674 8.00628 35.2155 
182 1 1 -0.834 6.29605 7.70849 75.6518 
183 1 1 -0.834 13.5959 5.07008 76.6179 
184 1 1 -0.834 19.1547 6.65761 13.6256 
185 1 1 -0.834 21.8173 14.8007 69.1901 
186 1 1 -0.834 19.0083 12.3392 79.4064 
187 1 1 -0.834 20.1614 24.1556 48.4018 
188 1 1 -0.834 8.68845 21.6888 68.2038 
189 1 1 -0.834 12.2214 22.6552 40.3501 
190 1 1 -0.834 11.4079 4.33003 74.6375 
191 1 1 -0.834 20.1909 17.2266 43.6927 
192 1 1 -0.834 19.9073 9.77269 59.0431 
193 1 1 -0.834 11.7033 4.87366 20.0626 
194 1 1 -0.834 18.624 5.81137 73.566 
195 1 1 -0.834 12.2815 8.11432 48.9427 
196 1 1 -0.834 11.4408 19.6117 54.8501 
197 1 1 -0.834 18.9446 1.86003 82.1491 
198 1 1 -0.834 4.15661 14.7952 55.9859 
199 1 1 -0.834 5.97653 15.2222 74.8357 
200 1 1 -0.834 16.0709 23.4762 69.9255 
201 1 1 -0.834 9.25087 14.0213 2.95516 
202 1 1 -0.834 22.0694 16.7585 60.2684 
203 1 1 -0.834 19.6222 4.63155 81.3791 
204 1 1 -0.834 11.2345 0.320074 19.8023 
205 1 1 -0.834 3.26748 9.37849 58.7689 
206 1 1 -0.834 7.17454 0.295356 63.1154 
207 1 1 -0.834 3.35103 14.4246 80.1271 
208 1 1 -0.834 1.45244 13.3533 44.3307 
209 1 1 -0.834 1.28358 21.2873 28.2743 
210 1 1 -0.834 11.4599 13.5976 62.8752 
211 1 1 -0.834 12.345 12.9421 8.79365 
212 1 1 -0.834 0.427359 5.32744 37.9798 
213 1 1 -0.834 6.87245 16.0605 77.6951 
214 1 1 -0.834 22.3305 1.7479 43.5464 
215 1 1 -0.834 6.02555 14.0746 23.3974 
216 1 1 -0.834 0.918157 5.3287 55.0231 
217 1 1 -0.834 21.8827 20.3124 6.83338 
218 1 1 -0.834 22.0184 9.83256 82.0318 
219 1 1 -0.834 4.6413 11.0742 46.7872 
220 1 1 -0.834 1.48465 12.0999 83.5057 
221 1 1 -0.834 17.0584 14.8207 72.6986 
222 1 1 -0.834 21.2563 0.627873 3.72028 
223 1 1 -0.834 6.42551 5.9824 47.8254 
224 1 1 -0.834 4.91705 2.01467 30.7371 
225 1 1 -0.834 9.162 9.42512 76.6189 
226 1 1 -0.834 2.09932 14.91 41.2192 
227 1 1 -0.834 2.05351 9.02834 65.8615 
228 1 1 -0.834 0.598005 0.976987 67.1754 
229 1 1 -0.834 3.61453 2.4592 62.3279 
230 1 1 -0.834 12.0118 17.9799 68.2963 
231 1 1 -0.834 20.8898 2.53118 55.5053 
232 1 1 -0.834 11.1213 7.60558 67.7218 
233 1 1 -0.834 1.32575 6.05961 59.2883 
234 1 1 -0.834 16.2839 14.1544 69.411 
235 1 1 -0.834 22.1804 21.7133 41.7236 
236 1 1 -0.834 10.6656 11.8175 2.7511 
237 1 1 -0.834 22.6301 12.7681 67.579 
238 1 1 -0.834 13.1305 16.5564 12.6269 
239 1 1 -0.834 16.5561 18.7108 35.7039 
240 1 1 -0.834 7.07234 9.97871 41.4986 
241 1 1 -0.834 7.38533 19.1441 61.1 
242 1 1 -0.834 22.1331 22.6967 76.3129 
243 1 1 -0.834 13.6337 11.2137 67.2853 
244 1 1 -0.834 22.8907 16.8169 0.426187 
245 1 1 -0.834 6.93185 21.291 72.4148 
246 1 1 -0.834 3.64323 24.3332 68.4073 
247 1 1 -0.834 3.33811 17.5827 85.5752 
248 1 1 -0.834 2.82906 8.78995 42.4082 
249 1 1 -0.834 7.63549 19.9324 48.3828 
250 1 1 -0.834 4.36279 16.5097 45.0103 
251 1 1 -0.834 7.9182 11.9505 85.4581 
252 1 1 -0.834 11.3133 12.5922 79.7763 
253 1 1 -0.834 8.15877 23.0224 45.2996 
254 1 1 -0.834 4.62199 18.3781 56.8445 
255 1 1 -0.834 10.6316 21.6207 58.8404 
256 1 1 -0.834 18.4694 5.46549 42.3587 
257 1 1 -0.834 15.1129 8.50086 48.7539 
258 1 1 -0.834 2.733 6.03964 50.1988 
259 1 1 -0.834 18.9195 3.47698 71.563 
260 1 1 -0.834 17.0427 23.0004 0.378225 
261 1 1 -0.834 21.7587 3.20614 51.8723 
262 1 1 -0.834 13.9687 22.3156 62.535 
263 1 1 -0.834 21.0875 13.1498 15.7331 
264 1 1 -0.834 3.93671 2.23438 73.2031 
265 1 1 -0.834 12.5209 1.04594 40.7781 
266 1 1 -0.834 0.0598452 11.7313 76.2221 
267 1 1 -0.834 17.913 19.8091 50.4703 
268 1 1 -0.834 10.1814 7.26863 78.3789 
269 1 1 -0.834 10.7021 22.2161 53.5005 
270 1 1 -0.834 20.3967 22.3001 60.4379 
271 1 1 -0.834 19.4156 2.30876 79.0483 
272 1 1 -0.834 19.9307 16.4911 54.9182 
273 1 1 -0.834 20.8397 3.11564 47.3793 
274 1 1 -0.834 9.46723 8.76474 32.2563 
275 1 1 -0.834 2.52314 11.657 48.6599 
276 1 1 -0.834 23.9593 8.53458 16.0544 
277 1 1 -0.834 6.94587 5.72554 79.5052 
278 1 1 -0.834 20.0994 4.74748 76.1115 
279 1 1 -0.834 15.7195 5.46683 86.8438 
280 1 1 -0.834 16.8242 19.8698 30.4884 
281 1 1 -0.834 9.7954 4.44684 3.32402 
282 1 1 -0.834 21.1766 14.5647 62.3123 
283 1 1 -0.834 4.81179 16.4305 67.8494 
284 1 1 -0.834 18.2109 10.4624 77.5879 
285 1 1 -0.834 20.2137 13.5406 36.5346 
286 1 1 -0.834 22.4596 1.89838 59.1723 
287 1 1 -0.834 20.5831 10.0881 47.7255 
288 1 1 -0.834 6.79655 17.4084 43.7924 
289 1 1 -0.834 18.7654 23.1192 27.4729 
290 1 1 -0.834 11.5994 16.463 47.9508 
291 1 1 -0.834 7.26979 13.8155 25.9264 
292 1 1 -0.834 12.6077 0.308484 58.0791 
293 1 1 -0.834 23.4187 20.3756 23.6267 
294 1 1 -0.834 13.073 6.22711 51.7506 
295 1 1 -0.834 0.116802 19.1179 26.8477 
296 1 1 -0.834 19.9911 20.7268 57.0614 
297 1 1 -0.834 5.71559 15.2978 86.2466 
298 1 1 -0.834 6.68933 12.0762 27.9743 
299 1 1 -0.834 11.5657 22.7827 56.3979 
300 1 1 -0.834 20.8626 5.05768 78.7777 
301 1 1 -0.834 16.9496 19.956 43.5234 
302 1 1 -0.834 13.5208 15.2447 67.2508 
303 1 1 -0.834 21.7525 6.71687 43.7222 
304 1 1 -0.834 15.3506 17.4033 64.1396 
305 1 1 -0.834 13.7368 7.31501 72.9865 
306 1 1 -0.834 4.35777 10.6981 43.4642 
307 1 1 -0.834 13.4757 2.65535 73.9911 
308 1 1 -0.834 12.8631 1.97696 44.3162 
309 1 1 -0.834 20.0807 18.3705 49.6489 
310 1 1 -0.834 3.82154 11.4333 80.9805 
311 1 1 -0.834 1.76272 1.44199 32.4948 
312 1 1 -0.834 7.74848 2.93488 33.8506 
313 1 1 -0.834 1.11118 9.18193 76.6066 
314 1 1 -0.834 3.1509 22.812 33.3624 
315 1 1 -0.834 2.0215 8.87224 61.3096 
316 1 1 -0.834 5.4681 5.67949 60.2079 
317 1 1 -0.834 19.5244 21.4938 63.315 
318 1 1 -0.834 24.338 3.94706 67.2919 
319 1 1 -0.834 1.13943 9.61094 55.5442 
320 1 1 -0.834 18.181 9.47039 41.4727 
321 1 1 -0.834 6.2426 20.3186 46.0044 
322 1 1 -0.834 3.71721 2.33679 37.6743 
323 1 1 -0.834 1.70849 10.0856 44.8863 
324 1 1 -0.834 8.30094 9.23465 54.3732 
325 1 1 -0.834 23.8188 14.3711 85.0154 
326 1 1 -0.834 8.15021 1.52205 15.3382 
327 1 1 -0.834 19.0173 16.0335 63.7391 
328 1 1 -0.834 18.5672 14.5962 11.3074 
329 1 1 -0.834 15.8205 21.3422 49.1513 
330 1 1 -0.834 13.4457 5.23744 64.1393 
331 1 1 -0.834 18.0287 9.09149 62.8306 
332 1 1 -0.834 10.8498 4.1912 61.1272 
333 1 1 -0.834 16.5999 2.88439 44.5889 
334 1 1 -0.834 13.9785 3.26528 62.3336 
335 1 1 -0.834 14.8685 7.40735 82.3806 
336 1 1 -0.834 15.6218 15.5965 52.0543 
337 1 1 -0.834 0.800939 18.2986 69.5887 
338 1 1 -0.834 18.5996 9.67821 54.161 
339 1 1 -0.834 19.8214 21.7726 5.89583 
340 1 1 -0.834 4.61022 1.91656 11.5896 
341 1 1 -0.834 22.3361 7.48486 74.1704 
342 1 1 -0.834 1.46086 10.7777 16.9039 
343 1 1 -0.834 4.6958 12.0986 70.7681 
344 1 1 -0.834 23.5075 11.1151 57.2345 
345 1 1 -0.834 14.8256 20.8658 41.8893 
346 1 1 -0.834 13.5654 7.93689 25.4479 
347 1 1 -0.834 6.10163 19.5526 39.5283 
348 1 1 -0.834 20.9531 22.5107 54.106 
349 1 1 -0.834 22.3516 2.39818 76.1315 
350 1 1 -0.834 20.4823 5.36873 52.9325 
351 1 1 -0.834 21.3569 9.85109 38.2375 
352 1 1 -0.834 16.8421 21.6489 66.8119 
353 1 1 -0.834 8.31666 5.74635 76.6498 
354 1 1 -0.834 3.99071 15.4355 77.4199 
355 1 1 -0.834 9.69075 15.5862 41.7257 
356 1 1 -0.834 7.90665 22.4131 59.6173 
357 1 1 -0.834 0.375307 20.4488 3.97003 
358 1 1 -0.834 10.9415 17.982 60.0159 
359 1 1 -0.834 7.41161 13.4827 1.01733 
360 1 1 -0.834 0.97453 2.23807 30.0316 
361 1 1 -0.834 18.7925 3.68624 54.0153 
362 1 1 -0.834 10.1852 18.9907 70.043 
363 1 1 -0.834 18.4579 11.4598 17.017 
364 1 1 -0.834 4.59878 4.45911 79.2394 
365 1 1 -0.834 3.42319 22.0994 65.8303 
366 1 1 -0.834 1.2316 22.6179 1.84934 
367 1 1 -0.834 19.4352 2.57734 43.8635 
368 1 1 -0.834 0.66856 6.4683 7.44419 
369 1 1 -0.834 4.57355 13.4054 73.2008 
370 1 1 -0.834 16.0909 10.5368 46.8425 
371 1 1 -0.834 21.6654 14.3269 57.7854 
372 1 1 -0.834 4.00702 4.51895 58.2777 
373 1 1 -0.834 9.28291 0.0783484 65.1378 
374 1 1 -0.834 19.8071 19.3085 30.9495 
375 1 1 -0.834 9.6599 20.7773 51.4497 
376 1 1 -0.834 18.284 8.09217 18.5853 
377 1 1 -0.834 15.7915 23.5341 22.3853 
378 1 1 -0.834 2.03162 11.3525 69.7209 
379 1 1 -0.834 2.6888 9.3433 50.0799 
380 1 1 -0.834 11.4384 2.60803 84.9377 
381 1 1 -0.834 8.31962 12.0271 70.6218 
382 1 1 -0.834 7.04706 14.1958 69.3824 
383 1 1 -0.834 11.3162 8.56016 41.8161 
384 1 1 -0.834 17.143 24.362 83.401 
385 1 1 -0.834 7.34481 22.0218 50.9825 
386 1 1 -0.834 4.66417 23.5893 73.8142 
387 1 1 -0.834 15.3812 17.4209 54.3817 
388 1 1 -0.834 8.50104 19.8626 44.0617 
389 1 1 -0.834 1.44018 6.22489 67.3338 
390 1 1 -0.834 3.58419 19.6392 21.3392 
391 1 1 -0.834 19.6503 19.6964 78.1911 
392 1 1 -0.834 13.9904 5.60976 21.2969 
393 1 1 -0.834 0.33951 20.043 43.1188 
394 1 1 -0.834 12.1997 21.3678 42.8426 
395 1 1 -0.834 18.1573 12.6516 44.0195 
396 1 1 -0.834 14.886 11.1411 7.66465 
397 1 1 -0.834 4.80423 11.71 50.6858 
398 1 1 -0.834 15.8273 16.0018 13.5385 
399 1 1 -0.834 11.5963 6.71366 22.4972 
400 1 1 -0.834 23.7149 24.1581 60.7039 
401 1 1 -0.834 16.8994 16.9328 30.2411 
402 1 1 -0.834 22.6408 18.4523 62.2125 
403 1 1 -0.834 22.6415 8.57543 71.492 
404 1 1 -0.834 8.42528 19.2578 53.3007 
405 1 1 -0.834 3.35256 17.6238 78.8309 
406 1 1 -0.834 4.43452 18.104 16.7823 
407 1 1 -0.834 3.22537 3.77174 54.4747 
408 1 1 -0.834 0.727132 10.3905 13.9489 
409 1 1 -0.834 1.28467 24.3443 4.51419 
410 1 1 -0.834 1.20118 17.1898 42.7415 
411 1 1 -0.834 16.4785 15.5408 4.71226 
412 1 1 -0.834 21.809 13.7475 39.1903 
413 1 1 -0.834 12.8825 1.71476 47.6904 
414 1 1 -0.834 8.49569 0.526694 12.7957 
415 1 1 -0.834 11.3855 17.6854 57.2713 
416 1 1 -0.834 17.2202 15.5949 75.4276 
417 1 1 -0.834 22.3124 4.2963 49.3089 
418 1 1 -0.834 22.5478 24.3594 1.26531 
419 1 1 -0.834 13.0544 17.5135 52.8621 
420 1 1 -0.834 10.783 21.7322 45.264 
421 1 1 -0.834 2.38854 14.1105 63.8558 
422 1 1 -0.834 8.89102 5.39917 54.5333 
423 1 1 -0.834 16.2236 2.0171 52.0839 
424 1 1 -0.834 7.12484 15.5734 61.4706 
425 1 1 -0.834 20.3871 11.1384 10.7943 
426 1 1 -0.834 13.7978 4.24638 47.9516 
427 1 1 -0.834 9.02768 9.11646 3.57041 
428 1 1 -0.834 4.7878 4.39159 76.2314 
429 1 1 -0.834 2.50884 19.4569 82.0231 
430 1 1 -0.834 6.14836 19.6994 58.6735 
431 1 1 -0.834 10.6475 5.83613 43.0553 
432 1 1 -0.834 8.45475 9.30924 69.3083 
433 1 1 -0.834 19.4308 14.9779 45.4493 
434 1 1 -0.834 19.0414 24.0343 22.7677 
435 1 1 -0.834 14.0414 0.671188 55.4663 
436 1 1 -0.834 3.20863 14.2585 68.6461 
437 1 1 -0.834 20.1049 8.37516 35.793 
438 1 1 -0.834 12.5087 1.12199 76.3154 
439 1 1 -0.834 23.2474 0.331277 29.3276 
440 1 1 -0.834 6.58718 17.1189 40.8904 
441 1 1 -0.834 0.329079 17.5054 64.9886 
442 1 1 -0.834 23.2335 19.2606 45.4337 
443 1 1 -0.834 10.7038 1.40316 62.4016 
444 1 1 -0.834 11.8961 16.4148 45.1847 
445 1 1 -0.834 2.37183 1.79066 78.2714 
446 1 1 -0.834 10.5158 5.83678 58.5757 
447 1 1 -0.834 23.2123 24.3806 74.2772 
448 1 1 -0.834 5.74266 13.6049 48.9278 
449 1 1 -0.834 23.6355 15.6351 81.2337 
450 1 1 -0.834 20.9368 11.0841 66.3117 
451 1 1 -0.834 18.4515 12.3129 74.0148 
452 1 1 -0.834 21.3979 0.556072 45.8239 
453 1 1 -0.834 5.84635 0.860618 71.4125 
454 1 1 -0.834 16.7687 13.0999 12.3936 
455 1 1 -0.834 0.950312 7.48207 13.1358 
456 1 1 -0.834 20.3842 5.36041 70.1738 
457 1 1 -0.834 0.272445 16.6015 22.4079 
458 1 1 -0.834 18.8981 4.14222 62.1467 
459 1 1 -0.834 4.32469 12.4332 25.8478 
460 1 1 -0.834 6.21874 1.90285 45.2019 
461 1 1 -0.834 9.33675 10.9864 65.6447 
462 1 1 -0.834 11.0879 20.919 35.9083 
463 1 1 -0.834 11.1654 6.79474 75.7958 
464 1 1 -0.834 5.65697 11.4693 22.0987 
465 1 1 -0.834 16.6919 5.42436 53.3878 
466 1 1 -0.834 5.37799 9.30998 55.4836 
467 1 1 -0.834 0.936771 7.81761 73.9625 
468 1 1 -0.834 21.5213 11.5258 44.0281 
469 1 1 -0.834 9.02566 14.8596 63.2075 
470 1 1 -0.834 13.3272 20.4123 57.4186 
471 1 1 -0.834 23.1749 7.76923 77.071 
472 1 1 -0.834 18.0201 11.2169 65.0232 
473 1 1 -0.834 0.705677 23.5099 57.6193 
474 1 1 -0.834 19.2463 9.34331 51.4877 
475 1 1 -0.834 12.5839 2.93443 55.4029 
476 1 1 -0.834 3.92163 3.23065 65.2744 
477 1 1 -0.834 20.6978 19.4972 47.1642 
478 1 1 -0.834 8.31938 15.8246 58.6168 
479 1 1 -0.834 6.33146 6.96322 32.2175 
480 1 1 -0.834 20.39 17.3159 29.3916 
481 1 1 -0.834 1.1714 13.6432 17.3567 
482 1 1 -0.834 14.5149 4.79792 55.1102 
483 1 1 -0.834 1.70098 15.1147 19.9601 
484 1 1 -0.834 19.698 20.3889 70.5406 
485 1 1 -0.834 4.09775 19.4459 54.4341 
486 1 1 -0.834 7.58424 17.4562 18.7682 
487 1 1 -0.834 3.34265 11.5903 19.4302 
488 1 1 -0.834 12.8165 0.770622 60.8476 
489 1 1 -0.834 15.4683 1.85545 65.124 
490 1 1 -0.834 15.1416 13.9101 35.284 
491 1 1 -0.834 7.45627 5.48466 56.7878 
492 1 1 -0.834 16.1061 7.20551 20.3261 
493 1 1 -0.834 7.5385 0.100173 76.3224 
494 1 1 -0.834 15.649 17.7715 50.4031 
495 1 1 -0.834 18.2399 24.3557 50.3644 
496 1 1 -0.834 8.83672 2.7405 42.3227 
497 1 1 -0.834 19.7733 1.79122 20.7314 
498 1 1 -0.834 21.7102 20.8546 32.4234 
499 1 1 -0.834 19.4692 12.4288 39.8546 
500 1 1 -0.834 11.6985 18.4872 17.2788 
501 1 1 -0.834 0.0430483 21.7753 49.1414 
502 1 1 -0.834 18.6369 18.7526 45.5742 
503 1 1 -0.834 13.3542 21.588 59.8633 
504 1 1 -0.834 3.89525 0.927662 5.69039 
505 1 1 -0.834 3.75939 19.75 44.9105 
506 1 1 -0.834 15.7322 2.49717 75.8534 
507 1 1 -0.834 19.3313 19.0831 54.9051 
508 1 1 -0.834 8.54481 0.833646 70.4419 
509 1 1 -0.834 16.9267 16.0552 61.5069 
510 1 1 -0.834 22.1489 14.8512 46.5767 
511 1 1 -0.834 6.03549 17.0109 84.1793 
512 1 1 -0.834 12.507 22.7041 17.9052 
513 1 1 -0.834 13.4462 3.43826 52.437 
514 1 1 -0.834 4.50902 21.3743 52.2496 
515 1 1 -0.834 6.17245 0.535216 33.0576 
516 1 1 -0.834 21.4292 23.7167 62.4497 
517 1 1 -0.834 1.53068 15.624 56.5468 
518 1 1 -0.834 9.76609 15.3152 53.8131 
519 1 1 -0.834 15.3128 7.84485 53.3109 
520 1 1 -0.834 14.1827 4.73783 24.1332 
521 1 1 -0.834 19.6613 8.0397 39.5936 
522 1 1 -0.834 4.72388 15.0552 53.0721 
523 1 1 -0.834 3.97566 11.1964 67.1186 
524 1 1 -0.834 22.4503 7.4446 14.0818 
525 1 1 -0.834 12.6082 4.29272 83.0337 
526 1 1 -0.834 4.84895 24.3684 56.6653 
527 1 1 -0.834 5.53437 2.36998 80.7879 
528 1 1 -0.834 1.47043 3.03703 72.1171 
529 1 1 -0.834 21.9004 18.0085 4.55103 
530 1 1 -0.834 22.2346 2.86136 65.5986 
531 1 1 -0.834 24.1912 18.2597 59.0514 
532 1 1 -0.834 3.55319 23.4984 10.7534 
533 1 1 -0.834 19.4417 19.1319 1.40953 
534 1 1 -0.834 20.4506 20.2676 52.7115 
535 1 1 -0.834 10.2132 0.673122 54.6277 
536 1 1 -0.834 2.67161 3.94047 32.7482 
537 1 1 -0.834 11.6019 23.2623 37.1736 
538 1 1 -0.834 18.8638 22.8055 45.1155 
539 1 1 -0.834 9.28619 16.8888 78.9001 
540 1 1 -0.834 10.0144 1.67304 74.2852 
541 1 1 -0.834 1.43267 8.0605 47.4684 
542 1 1 -0.834 9.6363 22.0468 10.9597 
543 1 1 -0.834 13.8544 13.7284 51.857 
544 1 1 -0.834 16.4262 6.57681 57.8262 
545 1 1 -0.834 8.34647 17.0227 14.6212 
546 1 1 -0.834 17.6234 6.38056 15.8685 
547 1 1 -0.834 11.6362 18.8511 43.1683 
548 1 1 -0.834 24.1219 4.34606 32.5908 
549 1 1 -0.834 8.71865 3.60528 71.1631 
550 1 1 -0.834 16.2515 11.7073 62.9399 
551 1 1 -0.834 13.1441 20.4737 16.1051 
552 1 1 -0.834 14.3612 15.1445 45.8396 
553 1 1 -0.834 16.0795 20.2887 62.4111 
554 1 1 -0.834 19.359 18.636 25.5191 
555 1 1 -0.834 6.51112 22.197 62.2668 
556 1 1 -0.834 12.7128 11.4138 76.3978 
557 1 1 -0.834 3.23549 0.837696 45.0989 
558 1 1 -0.834 16.7539 2.74305 81.0799 
559 1 1 -0.834 24.0528 11.2059 49.9633 
560 1 1 -0.834 20.708 13.9373 52.0912 
561 1 1 -0.834 0.566128 18.5708 55.7588 
562 1 1 -0.834 13.3303 8.45942 28.1678 
563 1 1 -0.834 12.1437 9.66906 78.3297 
564 1 1 -0.834 11.6647 3.48513 23.7435 
565 1 1 -0.834 14.6593 24.3881 74.5463 
566 1 1 -0.834 15.3893 10.9941 58.3681 
567 1 1 -0.834 17.6636 10.9763 10.2704 
568 1 1 -0.834 16.1652 21.4678 59.0684 
569 1 1 -0.834 21.5887 10.7622 18.2808 
570 1 1 -0.834 2.99322 16.4194 70.5041 
571 1 1 -0.834 18.6178 1.37221 57.2785 
572 1 1 -0.834 16.1433 23.2914 72.6304 
573 1 1 -0.834 11.3454 12.745 32.0675 
574 1 1 -0.834 12.2233 12.8406 45.5042 
575 1 1 -0.834 21.2792 23.5307 72.4713 
576 1 1 -0.834 1.27109 12.6917 66.1804 
577 1 1 -0.834 17.06 17.2002 11.3454 
578 1 1 -0.834 14.462 15.3608 75.2324 
579 1 1 -0.834 2.46816 15.7419 16.5189 
580 1 1 -0.834 23.8834 12.7331 64.105 
581 1 1 -0.834 14.6444 15.1451 55.3402 
582 1 1 -0.834 15.1759 5.28307 42.9902 
583 1 1 -0.834 10.4509 8.89886 46.6689 
584 1 1 -0.834 14.3526 15.0916 9.09205 
585 1 1 -0.834 7.9802 19.9728 19.618 
586 1 1 -0.834 3.70487 0.395441 65.677 
587 1 1 -0.834 2.87172 1.11745 53.8485 
588 1 1 -0.834 7.67225 19.2795 67.1481 
589 1 1 -0.834 14.366 14.89 58.7785 
590 1 1 -0.834 23.4585 5.56715 79.7188 
591 1 1 -0.834 7.63631 22.6539 48.1422 
592 1 1 -0.834 5.5869 8.13756 43.4073 
593 1 1 -0.834 18.6938 13.5489 68.1698 
594 1 1 -0.834 9.00468 1.95889 52.242 
595 1 1 -0.834 2.93726 2.13939 57.2753 
596 1 1 -0.834 2.27829 4.63728 69.8263 
597 1 1 -0.834 23.2851 5.24383 76.2391 
598 1 1 -0.834 16.4162 1.09449 0.0111709 
599 1 1 -0.834 12.995 19.1861 65.3653 
600 1 1 -0.834 23.232 5.36942 35.5493 
601 1 1 -0.834 18.292 4.92643 48.8583 
602 1 1 -0.834 9.11547 12.257 47.7036 
603 1 1 -0.834 21.1799 24.0386 56.6158 
604 1 1 -0.834 14.1952 18.2812 37.3659 
605 1 1 -0.834 3.07502 6.37526 45.1918 
606 1 1 -0.834 9.96694 11.4268 45.2244 
607 1 1 -0.834 8.7494 2.86384 56.0763 
608 1 1 -0.834 11.995 11.512 0.335974 
609 1 1 -0.834 18.3114 5.46257 68.4041 
610 1 1 -0.834 0.697597 22.8443 43.5191 
611 1 1 -0.834 23.7417 8.17294 49.3318 
612 1 1 -0.834 6.02792 9.23036 1.66031 
613 1 1 -0.834 13.5184 7.38899 43.5871 
614 1 1 -0.834 19.3916 3.50272 65.0278 
615 1 1 -0.834 13.5442 17.4471 31.0556 
616 1 1 -0.834 12.023 6.5362 3.61695 
617 1 1 -0.834 18.8316 19.7558 60.6797 
618 1 1 -0.834 8.5403 17.468 64.1448 
619 1 1 -0.834 16.7589 16.625 70.6553 
620 1 1 -0.834 14.8691 5.55185 66.4911 
621 1 1 -0.834 18.3282 17.3517 68.3805 
622 1 1 -0.834 21.0617 20.7837 85.4875 
623 1 1 -0.834 3.22856 1.95445 8.90025 
624 1 1 -0.834 22.2264 11.5906 74.2584 
625 1 1 -0.834 14.0484 12.0318 56.129 
626 1 1 -0.834 21.2242 19.0175 75.791 
627 1 1 -0.834 19.8318 9.73636 73.1412 
628 1 1 -0.834 13.1733 13.4275 12.0757 
629 1 1 -0.834 24.1119 10.7322 72.3289 
630 1 1 -0.834 15.1662 0.422805 43.146 
631 1 1 -0.834 21.3317 22.3704 69.4362 
632 1 1 -0.834 16.9141 14.0403 77.9244 
633 1 1 -0.834 1.91339 12.6544 51.3573 
634 1 1 -0.834 16.4224 1.77805 23.4075 
635 1 1 -0.834 23.6086 21.682 55.128 
636 1 1 -0.834 16.6309 15.6118 65.8407 
637 1 1 -0.834 9.78416 18.4196 36.5942 
638 1 1 -0.834 12.9362 20.8945 50.2028 
639 1 1 -0.834 5.75028 22.0519 17.0938 
640 1 1 -0.834 11.9781 13.8397 69.2015 
641 1 1 -0.834 0.324796 4.82388 50.8625 
642 1 1 -0.834 5.65371 1.87169 51.7275 
643 1 1 -0.834 9.75763 10.189 73.769 
644 1 1 -0.834 22.6315 5.72036 57.9161 
645 1 1 -0.834 11.6486 17.3167 38.6232 
646 1 1 -0.834 16.3987 21.7055 46.1181 
647 1 1 -0.834 21.7652 23.8771 6.36352 
648 1 1 -0.834 10.0008 17.5944 12.6411 
649 1 1 -0.834 14.1581 1.73722 85.5086 
650 1 1 -0.834 12.0198 22.9827 71.4207 
651 1 1 -0.834 19.4873 15.8776 60.2411 
652 1 1 -0.834 0.549873 11.0816 19.6172 
653 1 1 -0.834 21.9467 2.80068 61.6687 
654 1 1 -0.834 5.49326 11.0075 86.3903 
655 1 1 -0.834 15.9329 11.2578 70.8271 
656 1 1 -0.834 2.38657 23.981 30.1989 
657 1 1 -0.834 0.962945 16.7219 61.2481 
658 1 1 -0.834 14.2022 22.4337 68.2957 
659 1 1 -0.834 19.5672 13.0676 55.3389 
660 1 1 -0.834 11.3961 16.3062 51.0328 
661 1 1 -0.834 23.7859 4.27572 73.5908 
662 1 1 -0.834 24.0145 24.1476 32.4326 
663 1 1 -0.834 14.8686 13.3436 5.95366 
664 1 1 -0.834 4.61626 18.6028 66.1152 
665 1 1 -0.834 19.786 15.0032 8.09949 
666 1 1 -0.834 21.8363 14.7562 54.2253 
667 1 1 -0.834 10.0951 3.59663 47.7724 
668 1 1 -0.834 12.7761 7.09354 46.4194 
669 1 1 -0.834 4.93632 23.4718 60.1709 
670 1 1 -0.834 15.7526 3.21217 25.7187 
671 1 1 -0.834 9.21858 19.8552 74.8667 
672 1 1 -0.834 21.1703 15.2813 49.6094 
673 1 1 -0.834 17.5719 15.9443 47.2154 
674 1 1 -0.834 3.10397 7.06141 57.3651 
675 1 1 -0.834 16.215 12.5257 80.4881 
676 1 1 -0.834 14.871 19.5964 8.38046 
677 1 1 -0.834 2.65056 2.77877 13.783 
678 1 1 -0.834 1.80983 23.0251 46.3846 
679 1 1 -0.834 8.3709 0.372421 60.7471 
680 1 1 -0.834 2.55959 0.840726 35.0195 
681 1 1 -0.834 7.20348 8.24838 61.1239 
682 1 1 -0.834 3.48746 18.8511 63.1264 
683 1 1 -0.834 13.2866 11.101 48.4084 
684 1 1 -0.834 22.6501 3.22191 8.64547 
685 1 1 -0.834 18.4145 4.18608 57.2534 
686 1 1 -0.834 16.5645 8.86747 51.0939 
687 1 1 -0.834 6.31255 14.4241 46.2578 
688 1 1 -0.834 7.871 23.0511 53.6004 
689 1 1 -0.834 7.10424 4.08647 50.1276 
690 1 1 -0.834 10.8356 14.4115 34.1848 
691 1 1 -0.834 3.88451 6.04693 35.3384 
692 1 1 -0.834 22.5286 8.67885 54.9682 
693 1 1 -0.834 5.93498 9.86697 63.0774 
694 1 1 -0.834 1.86884 14.7081 47.5105 
695 1 1 -0.834 0.633394 17.8452 80.1702 
696 1 1 -0.834 8.18503 17.2738 74.9887 
697 1 1 -0.834 21.2693 12.3395 71.7085 
698 1 1 -0.834 1.25539 23.4741 54.5727 
699 1 1 -0.834 23.3216 19.6516 50.9183 
700 1 1 -0.834 17.651 9.12027 15.8884 
701 1 1 -0.834 12.7963 12.8275 4.22149 
702 1 1 -0.834 5.29387 0.347527 13.9813 
703 1 1 -0.834 1.80394 11.9173 41.5749 
704 1 1 -0.834 9.14072 6.53274 69.2168 
705 1 1 -0.834 10.8228 21.4694 13.4653 
706 1 1 -0.834 11.3358 11.0217 25.755 
707 1 1 -0.834 14.0771 13.7388 61.6887 
708 1 1 -0.834 0.316711 19.4321 73.312 
709 1 1 -0.834 3.30324 12.1785 22.9504 
710 1 1 -0.834 5.47814 7.67637 68.1097 
711 1 1 -0.834 14.5614 16.5029 35.2179 
712 1 1 -0.834 8.72207 22.3617 17.2033 
713 1 1 -0.834 13.962 17.6864 56.9399 
714 1 1 -0.834 0.754032 19.9416 53.4587 
715 1 1 -0.834 2.53368 8.40899 68.6691 
716 1 1 -0.834 14.1014 7.01692 84.9743 
717 1 1 -0.834 3.27325 6.96169 7.61655 
718 1 1 -0.834 0.587507 22.3161 25.7257 
719 1 1 -0.834 5.92968 12.1742 61.5571 
720 1 1 -0.834 14.7698 8.71798 66.8673 
721 1 1 -0.834 1.67204 7.32493 36.3803 
722 1 1 -0.834 13.8718 13.693 79.7807 
723 1 1 -0.834 12.3191 5.77902 26.1026 
724 1 1 -0.834 11.7584 21.1344 77.1117 
725 1 1 -0.834 22.1372 18.7127 70.6365 
726 1 1 -0.834 13.9192 17.6976 6.71626 
727 1 1 -0.834 8.97424 23.9772 78.547 
728 1 1 -0.834 6.95256 1.38058 68.1073 
729 1 1 -0.834 16.4409 19.7079 65.1059 
730 1 1 -0.834 15.3567 7.91097 62.8919 
731 1 1 -0.834 0.416682 24.2537 8.67595 
732 1 1 -0.834 12.1767 10.6452 7.52087 
733 1 1 -0.834 9.05552 11.0835 56.7556 
734 1 1 -0.834 9.19695 11.5459 27.6488 
735 1 1 -0.834 12.0646 17.5692 9.05304 
736 1 1 -0.834 17.1433 7.66479 43.7029 
737 1 1 -0.834 6.13214 4.124 31.8519 
738 1 1 -0.834 8.96427 4.62174 52.0341 
739 1 1 -0.834 16.7837 11.5115 55.3055 
740 1 1 -0.834 12.6032 24.1147 45.6678 
741 1 1 -0.834 0.088325 1.81496 70.1235 
742 1 1 -0.834 15.5112 18.6015 74.8742 
743 1 1 -0.834 5.39711 14.2416 65.669 
744 1 1 -0.834 11.8747 2.72736 18.1358 
745 1 1 -0.834 1.51918 4.5356 77.6871 
746 1 1 -0.834 17.9095 0.927004 69.3301 
747 1 1 -0.834 15.4554 3.05453 1.89752 
748 1 1 -0.834 6.88728 23.2118 67.224 
749 1 1 -0.834 3.21806 21.7001 42.7691 
750 1 1 -0.834 11.9569 9.87562 69.2834 