 DBCSR| CPU Multiplication driver                                           XSMM
 DBCSR| Multrec recursion limit                                              512
 DBCSR| Multiplication stack size                                           1000
 DBCSR| Maximum elements for images                                    UNLIMITED
 DBCSR| Multiplicative factor virtual images                                   1
 DBCSR| Use multiplication densification                                       T
 DBCSR| Multiplication size stacks                                             3
 DBCSR| Use memory pool for CPU allocation                                     F
 DBCSR| Number of 3D layers                                               SINGLE
 DBCSR| Use MPI memory allocation                                              F
 DBCSR| Use RMA algorithm                                                      F
 DBCSR| Use Communication thread                                               T
 DBCSR| Communication thread load                                             87
 DBCSR| MPI: My node id                                                        0
 DBCSR| MPI: Number of nodes                                                  24
 DBCSR| OMP: Current number of threads                                         1
 DBCSR| OMP: Max number of threads                                             1
 DBCSR| Split modifier for TAS multiplication algorithm                  1.0E+00


  **** **** ******  **  PROGRAM STARTED AT               2022-09-04 17:48:46.176
 ***** ** ***  *** **   PROGRAM STARTED ON         node1054.palmetto.clemson.edu
 **    ****   ******    PROGRAM STARTED BY                               xiutinc
 ***** **    ** ** **   PROGRAM PROCESS ID                               3695548
  **** **  *******  **  PROGRAM STARTED IN    /scratch1/xiutinc/CP2K-96998.pbs02

 CP2K| version string:                                          CP2K version 9.1
 CP2K| source code revision number:                                  git:d8d7100
 CP2K| cp2kflags: omp libint fftw3 libxc parallel mpi3 scalapack xsmm           
 CP2K| is freely available from                            https://www.cp2k.org/
 CP2K| Program compiled at                          Mon Aug  8 12:17:03 EDT 2022
 CP2K| Program compiled on                         node0352.palmetto.clemson.edu
 CP2K| Program compiled for                           linux-rocky8-ivybridge-gcc
 CP2K| Data directory path    /software/spackages/linux-rocky8-ivybridge/gcc-9.5
 CP2K| Input file name                                             intE04_aq.inp

 GLOBAL| Force Environment number                                              1
 GLOBAL| Basis set file name                                          BASIS_file
 GLOBAL| Potential file name                                     POTENTIALS_file
 GLOBAL| MM Potential file name                                     MM_POTENTIAL
 GLOBAL| Coordinate file name                                    ./intE04_aq.xyz
 GLOBAL| Method name                                                        CP2K
 GLOBAL| Project name                                                  intE04_aq
 GLOBAL| Run type                                                        GEO_OPT
 GLOBAL| FFT library                                                       FFTW3
 GLOBAL| Diagonalization library                                       ScaLAPACK
 GLOBAL| Orthonormality check for eigenvectors                          DISABLED
 GLOBAL| Matrix multiplication library                                 ScaLAPACK
 GLOBAL| All-to-all communication in single precision                          F
 GLOBAL| FFTs using library dependent lengths                                  F
 GLOBAL| Grid backend                                                       AUTO
 GLOBAL| Global print level                                                  LOW
 GLOBAL| MPI I/O enabled                                                       T
 GLOBAL| Total number of message passing processes                            24
 GLOBAL| Number of threads for this process                                    1
 GLOBAL| This output is from process                                           0
 GLOBAL| Stack size for threads created by OpenMP (OMP_STACKSIZE)        default
 GLOBAL| CPU model name                Intel(R) Xeon(R) CPU E5-2680 v3 @ 2.50GHz
 GLOBAL| CPUID                                                              1002
 GLOBAL| Compiled for CPUID                                                 1001

 *** HINT in environment.F:869 :: The compiler target flags (x86_avx) used ***
 *** to build this binary cannot exploit all extensions of this CPU model  ***
 *** (x86_avx2). Consider compiler target flags as part of FCFLAGS and     ***
 *** CFLAGS (ARCH file).                                                   ***


 MEMORY| system memory details [Kb]
 MEMORY|                        rank 0           min           max       average
 MEMORY| MemTotal            131294764     131294764     131294764     131294764
 MEMORY| MemFree             122542256     122542256     122542256     122542256
 MEMORY| Buffers                  3380          3380          3380          3380
 MEMORY| Cached                3135436       3135436       3135436       3135436
 MEMORY| Slab                   698176        698176        698176        698176
 MEMORY| SReclaimable           306200        306200        306200        306200
 MEMORY| MemLikelyFree       125987272     125987272     125987272     125987272


 *******************************************************************************
 *******************************************************************************
 **                                                                           **
 **     #####                         ##              ##                      **
 **    ##   ##            ##          ##              ##                      **
 **   ##     ##                       ##            ######                    **
 **   ##     ##  ##   ##  ##   #####  ##  ##   ####   ##    #####    #####    **
 **   ##     ##  ##   ##  ##  ##      ## ##   ##      ##   ##   ##  ##   ##   **
 **   ##  ## ##  ##   ##  ##  ##      ####     ###    ##   ######   ######    **
 **    ##  ###   ##   ##  ##  ##      ## ##      ##   ##   ##       ##        **
 **     #######   #####   ##   #####  ##  ##  ####    ##    #####   ##        **
 **           ##                                                    ##        **
 **                                                                           **
 **                                                ... make the atoms dance   **
 **                                                                           **
 **            Copyright (C) by CP2K developers group (2000-2021)             **
 **                      J. Chem. Phys. 152, 194103 (2020)                    **
 **                                                                           **
 *******************************************************************************


 TOTAL NUMBERS AND MAXIMUM NUMBERS

  Total number of            - Atomic kinds:                                   5
                             - Atoms:                                        658
                             - Shell sets:                                   658
                             - Shells:                                      3181
                             - Primitive Cartesian functions:               3101
                             - Cartesian basis functions:                   8725
                             - Spherical basis functions:                   8119

  Maximum angular momentum of- Orbital basis functions:                        3
                             - Local part of the GTH pseudopotential:          2
                             - Non-local part of the GTH pseudopotential:      3


 SCF PARAMETERS         Density guess:                                   RESTART
                        --------------------------------------------------------
                        max_scf:                                             500
                        max_scf_history:                                       0
                        max_diis:                                              4
                        --------------------------------------------------------
                        eps_scf:                                        1.00E-06
                        eps_scf_history:                                0.00E+00
                        eps_diis:                                       1.00E-01
                        eps_eigval:                                     1.00E-05
                        --------------------------------------------------------
                        level_shift [a.u.]:                                 0.00
                        --------------------------------------------------------
                        Outer loop SCF in use 
                        No variables optimised in outer loop
                        eps_scf                                         1.00E-06
                        max_scf                                               50
                        No outer loop optimization
                        step_size                                       5.00E-01

 BFGS| Use rational function optimization for step estimation:                NO
 BFGS| Use model Hessian for initial guess:                                  YES
 BFGS| Restart Hessian:                                                       NO
 BFGS| Trust radius:                                                       0.472

 *******************************************************************************
 ***                     STARTING GEOMETRY OPTIMIZATION                      ***
 ***                                   BFGS                                  ***
 *******************************************************************************

 Number of electrons:                                                       3288
 Number of occupied orbitals:                                               1644
 Number of molecular orbitals:                                              1644

 Number of orbital functions:                                               8119
 Number of independent orbital functions:                                   8119

 Extrapolation method: initial_guess

 *** WARNING in qs_initial_guess.F:309 :: User requested to restart the   ***
 *** wavefunction from the file named: intE04_aq-RESTART.wfn. This file   ***
 *** does not exist. Please check the existence of the file or change     ***
 *** properly the value of the keyword WFN_RESTART_FILE_NAME. Calculation ***
 *** continues using ATOMIC GUESS.                                        ***



 SCF WAVEFUNCTION OPTIMIZATION

  ----------------------------------- OT ---------------------------------------
  Minimizer      : CG                  : conjugate gradient
  Preconditioner : FULL_ALL            : diagonalization, state selective
  Precond_solver : DEFAULT
  Line search    : 2PNT                : 2 energies, one gradient
  stepsize       :    0.15000000                  energy_gap     :    0.00100000
  eps_taylor     :   0.10000E-15                  max_taylor     :             4
  ----------------------------------- OT ---------------------------------------

  Step     Update method      Time    Convergence         Total energy    Change
  ------------------------------------------------------------------------------
     1 OT CG       0.15E+00   50.6     0.01635681     -7196.9875523706 -7.20E+03
     2 OT LS       0.61E-01    5.3                    -7077.3853164549
     3 OT CG       0.61E-01   15.3     0.07548714     -7101.6436864003  9.53E+01
     4 OT LS       0.28E-01    6.3                    -6623.9473606771
     5 OT CG       0.28E-01   14.0     0.11758622     -6795.3088295979  3.06E+02
     6 OT LS       0.15E-01    5.3                    -6944.2712440546
     7 OT CG       0.15E-01   13.9     0.06039609     -7050.8758467352 -2.56E+02
     8 OT LS       0.88E-02    5.3                    -7150.3299435748
     9 OT CG       0.88E-02   13.9     0.01744897     -7185.8518175288 -1.35E+02
    10 OT LS       0.21E-01    5.3                    -7209.1563324112
    11 OT CG       0.21E-01   13.9     0.01733640     -7216.1121669313 -3.03E+01
    12 OT LS       0.27E-01    5.4                    -7254.6451651317
    13 OT CG       0.27E-01   14.0     0.01653707     -7257.2679444856 -4.12E+01
    14 OT LS       0.15E-01    5.3                    -7266.8899986193
    15 OT CG       0.15E-01   13.9     0.01104631     -7280.2433076866 -2.30E+01
    16 OT LS       0.54E-01    5.3                    -7299.0895193194
    17 OT CG       0.54E-01   13.9     0.01903882     -7302.4503059955 -2.22E+01
    18 OT LS       0.54E-03    5.3                    -6569.1382935545
    19 OT CG       0.54E-03   13.9     0.01937834     -7302.5122477635 -6.19E-02
    20 OT LS       0.22E-02    5.3                    -7305.1250788591
    21 OT CG       0.22E-02   13.9     0.01454542     -7311.9342886702 -9.42E+00
    22 OT LS       0.86E-02    5.3                    -7317.3401232384
    23 OT CG       0.86E-02   13.9     0.00570807     -7326.0615501665 -1.41E+01
    24 OT LS       0.34E-01    5.3                    -7329.5415377040
    25 OT CG       0.34E-01   14.0     0.00411266     -7336.8361031452 -1.08E+01
    26 OT LS       0.12E+00    5.3                    -7343.9163224682
    27 OT CG       0.12E+00   13.9     0.00464165     -7353.9044342406 -1.71E+01
    28 OT LS       0.21E-01    5.3                    -7275.0512850110
    29 OT CG       0.21E-01   13.9     0.00423682     -7357.9761178981 -4.07E+00
    30 OT LS       0.56E-01    5.3                    -7362.3541588360
    31 OT CG       0.56E-01   13.9     0.00518283     -7365.0644649186 -7.09E+00
    32 OT LS       0.33E-01    5.3                    -7368.0314090591
    33 OT CG       0.33E-01   13.9     0.00350428     -7369.8344522246 -4.77E+00
    34 OT LS       0.51E-01    5.8                    -7373.2962675112
    35 OT CG       0.51E-01   17.6     0.00358236     -7373.4648333409 -3.63E+00
    36 OT LS       0.53E-01    5.3                    -7377.0114836321
    37 OT CG       0.53E-01   14.1     0.00361307     -7377.0124740334 -3.55E+00
    38 OT LS       0.33E-01    5.3                    -7378.7382783900
    39 OT CG       0.33E-01   13.9     0.00288779     -7379.5765613305 -2.56E+00
    40 OT LS       0.74E-01    5.3                    -7382.3527730920
    41 OT CG       0.74E-01   13.9     0.00331791     -7383.0014671387 -3.42E+00
    42 OT LS       0.37E-01    5.3                    -7382.9725997315
    43 OT CG       0.37E-01   13.9     0.00327888     -7384.7512216956 -1.75E+00
    44 OT LS       0.30E-01    5.3                    -7386.7833339149
    45 OT CG       0.30E-01   13.9     0.00217306     -7386.8418863940 -2.09E+00
    46 OT LS       0.65E-01    5.3                    -7388.3323625507
    47 OT CG       0.65E-01   14.0     0.00218925     -7388.7076368867 -1.87E+00
    48 OT LS       0.46E-01    5.3                    -7389.5784239574
    49 OT CG       0.46E-01   14.1     0.00240058     -7389.7431652184 -1.04E+00
    50 OT LS       0.36E-01    5.3                    -7391.0170882538
    51 OT CG       0.36E-01   13.9     0.00182361     -7391.0829080500 -1.34E+00
    52 OT LS       0.72E-01    5.3                    -7392.3155328147
    53 OT CG       0.72E-01   13.9     0.00174134     -7392.6191530179 -1.54E+00
    54 OT LS       0.98E-01    5.3                    -7394.1535532897
    55 OT CG       0.98E-01   13.9     0.00236673     -7394.2546572128 -1.64E+00
    56 OT LS       0.67E-01    5.3                    -7396.1655067941
    57 OT CG       0.67E-01   14.0     0.00243964     -7396.5066241506 -2.25E+00
    58 OT LS       0.60E-01    5.3                    -7398.8853917413
    59 OT CG       0.60E-01   13.9     0.00204539     -7398.9624997090 -2.46E+00
    60 OT LS       0.68E-01    5.3                    -7400.7009687930
    61 OT CG       0.68E-01   13.9     0.00204777     -7400.7297885066 -1.77E+00
    62 OT LS       0.56E-01    5.7                    -7402.2296621827
    63 OT CG       0.56E-01   13.9     0.00164529     -7402.2538703733 -1.52E+00
    64 OT LS       0.85E-01    5.3                    -7403.6763535298
    65 OT CG       0.85E-01   17.3     0.00151130     -7403.8071852441 -1.55E+00
    66 OT LS       0.11E+00    5.3                    -7405.2328230817
    67 OT CG       0.11E+00   14.0     0.00182058     -7405.3414584277 -1.53E+00
    68 OT LS       0.69E-01    5.3                    -7406.2579987301
    69 OT CG       0.69E-01   14.0     0.00164770     -7406.8303990479 -1.49E+00
    70 OT LS       0.65E-01    5.3                    -7407.9948361193
    71 OT CG       0.65E-01   14.0     0.00124656     -7408.0059551888 -1.18E+00
    72 OT LS       0.11E+00    5.3                    -7408.9139901801
    73 OT CG       0.11E+00   13.9     0.00149939     -7409.0593341935 -1.05E+00
    74 OT LS       0.67E-01    5.3                    -7409.6759416687
    75 OT CG       0.67E-01   14.1     0.00133703     -7409.9748524202 -9.16E-01
    76 OT LS       0.93E-01    5.3                    -7410.9953387388
    77 OT CG       0.93E-01   13.9     0.00131893     -7411.0941520914 -1.12E+00
    78 OT LS       0.73E-01    5.3                    -7411.9009885214
    79 OT CG       0.73E-01   14.0     0.00126293     -7411.9840804766 -8.90E-01
    80 OT LS       0.91E-01    5.3                    -7412.8961597566
    81 OT CG       0.91E-01   13.9     0.00131701     -7412.9280010326 -9.44E-01
    82 OT LS       0.73E-01    5.3                    -7413.7153205317
    83 OT CG       0.73E-01   13.9     0.00115914     -7413.7514592065 -8.23E-01
    84 OT LS       0.86E-01    5.3                    -7414.5172626497
    85 OT CG       0.86E-01   13.9     0.00111450     -7414.5330587287 -7.82E-01
    86 OT LS       0.82E-01    5.3                    -7415.2046541582
    87 OT CG       0.82E-01   14.0     0.00115285     -7415.2071182232 -6.74E-01
    88 OT LS       0.84E-01    5.3                    -7415.9383045022
    89 OT CG       0.84E-01   13.9     0.00108413     -7415.9389205253 -7.32E-01
    90 OT LS       0.78E-01    5.3                    -7416.5561335084
    91 OT CG       0.78E-01   13.9     0.00099614     -7416.5586456512 -6.20E-01
    92 OT LS       0.84E-01    5.3                    -7417.1137153544
    93 OT CG       0.84E-01   13.9     0.00096772     -7417.1150318192 -5.56E-01
    94 OT LS       0.89E-01    5.3                    -7417.6626963558
    95 OT CG       0.89E-01   14.3     0.00100065     -7417.6648718663 -5.50E-01
    96 OT LS       0.83E-01    6.5                    -7418.2126735813
    97 OT CG       0.83E-01   15.6     0.00093356     -7418.2152865102 -5.50E-01
    98 OT LS       0.83E-01    5.3                    -7418.7000120014
    99 OT CG       0.83E-01   14.1     0.00089069     -7418.7000125664 -4.85E-01
   100 OT LS       0.86E-01    5.3                    -7419.1534456909
   101 OT CG       0.86E-01   13.9     0.00088170     -7419.1538165736 -4.54E-01
   102 OT LS       0.86E-01    5.3                    -7419.5934178670
   103 OT CG       0.86E-01   13.9     0.00086760     -7419.5934048409 -4.40E-01
   104 OT LS       0.82E-01    5.3                    -7420.0068952869
   105 OT CG       0.82E-01   13.9     0.00080224     -7420.0073747637 -4.14E-01
   106 OT LS       0.88E-01    5.3                    -7420.3888124426
   107 OT CG       0.88E-01   13.9     0.00079403     -7420.3905020207 -3.83E-01
   108 OT LS       0.88E-01    5.3                    -7420.7601833203
   109 OT CG       0.88E-01   13.9     0.00079306     -7420.7601797636 -3.70E-01
   110 OT LS       0.85E-01    5.3                    -7421.1119981338
   111 OT CG       0.85E-01   13.9     0.00076308     -7421.1125527004 -3.52E-01
   112 OT LS       0.82E-01    5.4                    -7421.4336345099
   113 OT CG       0.82E-01   13.9     0.00070458     -7421.4337592721 -3.21E-01
   114 OT LS       0.90E-01    5.3                    -7421.7326501957
   115 OT CG       0.90E-01   13.9     0.00069937     -7421.7347996246 -3.01E-01
   116 OT LS       0.89E-01    5.3                    -7422.0255456344
   117 OT CG       0.89E-01   13.9     0.00070415     -7422.0256233743 -2.91E-01
   118 OT LS       0.85E-01    5.3                    -7422.3048925747
   119 OT CG       0.85E-01   13.9     0.00067757     -7422.3055729007 -2.80E-01
   120 OT LS       0.84E-01    5.3                    -7422.5612733168
   121 OT CG       0.84E-01   13.9     0.00063273     -7422.5613248912 -2.56E-01
   122 OT LS       0.90E-01    5.3                    -7422.8007143363
   123 OT CG       0.90E-01   13.9     0.00061971     -7422.8018520536 -2.41E-01
   124 OT LS       0.90E-01    5.3                    -7423.0332310901
   125 OT CG       0.90E-01   14.0     0.00062006     -7423.0332324380 -2.31E-01
   126 OT LS       0.89E-01    5.3                    -7423.2618824992
   127 OT CG       0.89E-01   15.2     0.00060457     -7423.2619095477 -2.29E-01
   128 OT LS       0.86E-01    5.3                    -7423.4703870044
   129 OT CG       0.86E-01   13.9     0.00057245     -7423.4707441344 -2.09E-01
   130 OT LS       0.88E-01    5.3                    -7423.6640967446
   131 OT CG       0.88E-01   13.9     0.00055706     -7423.6642784278 -1.94E-01
   132 OT LS       0.89E-01    5.3                    -7423.8494407037
   133 OT CG       0.89E-01   13.9     0.00055041     -7423.8494611118 -1.85E-01
   134 OT LS       0.90E-01    5.3                    -7424.0321852764
   135 OT CG       0.90E-01   13.9     0.00053968     -7424.0322100704 -1.83E-01
   136 OT LS       0.87E-01    5.3                    -7424.2011767444
   137 OT CG       0.87E-01   14.2     0.00051463     -7424.2014272951 -1.69E-01
   138 OT LS       0.89E-01    5.3                    -7424.3585378560
   139 OT CG       0.89E-01   14.0     0.00049861     -7424.3586041573 -1.57E-01
   140 OT LS       0.90E-01    5.3                    -7424.5081188388
   141 OT CG       0.90E-01   13.9     0.00048995     -7424.5081465320 -1.50E-01
   142 OT LS       0.92E-01    5.3                    -7424.6548442944
   143 OT CG       0.92E-01   13.9     0.00048341     -7424.6548844541 -1.47E-01
   144 OT LS       0.89E-01    5.3                    -7424.7935967031
   145 OT CG       0.89E-01   13.9     0.00046642     -7424.7937164551 -1.39E-01
   146 OT LS       0.90E-01    5.3                    -7424.9243246192
   147 OT CG       0.90E-01   13.9     0.00045244     -7424.9243386582 -1.31E-01
   148 OT LS       0.91E-01    5.3                    -7425.0484683373
   149 OT CG       0.91E-01   13.9     0.00044361     -7425.0484817113 -1.24E-01
   150 OT LS       0.92E-01    5.4                    -7425.1691082374
   151 OT CG       0.92E-01   13.9     0.00043851     -7425.1691230150 -1.21E-01
   152 OT LS       0.90E-01    5.3                    -7425.2843926319
   153 OT CG       0.90E-01   13.9     0.00042683     -7425.2844513121 -1.15E-01
   154 OT LS       0.90E-01    5.3                    -7425.3941896279
   155 OT CG       0.90E-01   13.9     0.00041569     -7425.3941913331 -1.10E-01
   156 OT LS       0.91E-01    5.3                    -7425.4993342285
   157 OT CG       0.91E-01   15.1     0.00040789     -7425.4993456347 -1.05E-01
   158 OT LS       0.92E-01    6.0                    -7425.6015869261
   159 OT CG       0.92E-01   15.0     0.00040236     -7425.6015975548 -1.02E-01
   160 OT LS       0.92E-01    5.3                    -7425.7014994778
   161 OT CG       0.92E-01   13.9     0.00039542     -7425.7015008035 -9.99E-02
   162 OT LS       0.92E-01    5.5                    -7425.7977736384
   163 OT CG       0.92E-01   13.9     0.00038928     -7425.7977744256 -9.63E-02
   164 OT LS       0.92E-01    5.3                    -7425.8909482483
   165 OT CG       0.92E-01   13.9     0.00038460     -7425.8909484174 -9.32E-02
   166 OT LS       0.92E-01    5.3                    -7425.9816428423
   167 OT CG       0.92E-01   13.9     0.00037993     -7425.9816434796 -9.07E-02
   168 OT LS       0.92E-01    5.3                    -7426.0704708094
   169 OT CG       0.92E-01   14.0     0.00037402     -7426.0704717487 -8.88E-02
   170 OT LS       0.93E-01    5.3                    -7426.1570579164
   171 OT CG       0.93E-01   14.0     0.00036858     -7426.1570599604 -8.66E-02
   172 OT LS       0.93E-01    5.3                    -7426.2413823580
   173 OT CG       0.93E-01   13.9     0.00036413     -7426.2413826072 -8.43E-02
   174 OT LS       0.93E-01    5.3                    -7426.3234775601
   175 OT CG       0.93E-01   14.2     0.00036047     -7426.3234781455 -8.21E-02
   176 OT LS       0.92E-01    5.3                    -7426.4035003857
   177 OT CG       0.92E-01   14.0     0.00035616     -7426.4035030960 -8.00E-02
   178 OT LS       0.92E-01    5.3                    -7426.4815975134
   179 OT CG       0.92E-01   13.9     0.00035089     -7426.4815976184 -7.81E-02
   180 OT LS       0.93E-01    5.3                    -7426.5580690815
   181 OT CG       0.93E-01   14.0     0.00034595     -7426.5580737226 -7.65E-02
   182 OT LS       0.93E-01    5.3                    -7426.6326183275
   183 OT CG       0.93E-01   13.9     0.00034076     -7426.6326185669 -7.45E-02
   184 OT LS       0.94E-01    5.3                    -7426.7052006424
   185 OT CG       0.94E-01   14.0     0.00033640     -7426.7052013185 -7.26E-02
   186 OT LS       0.93E-01    5.3                    -7426.7755655077
   187 OT CG       0.93E-01   14.2     0.00033111     -7426.7755679995 -7.04E-02
   188 OT LS       0.94E-01    5.6                    -7426.8440396235
   189 OT CG       0.94E-01   15.7     0.00032697     -7426.8440405450 -6.85E-02
   190 OT LS       0.93E-01    5.3                    -7426.9103384785
   191 OT CG       0.93E-01   13.9     0.00032183     -7426.9103424261 -6.63E-02
   192 OT LS       0.93E-01    5.3                    -7426.9748495095
   193 OT CG       0.93E-01   13.9     0.00031683     -7426.9748504429 -6.45E-02
   194 OT LS       0.94E-01    5.3                    -7427.0375789139
   195 OT CG       0.94E-01   13.9     0.00031146     -7427.0375794716 -6.27E-02
   196 OT LS       0.93E-01    5.3                    -7427.0980806463
   197 OT CG       0.93E-01   13.9     0.00030749     -7427.0980809550 -6.05E-02
   198 OT LS       0.93E-01    5.3                    -7427.1566193878
   199 OT CG       0.93E-01   14.1     0.00030178     -7427.1566228318 -5.85E-02
   200 OT LS       0.93E-01    5.3                    -7427.2132060619
   201 OT CG       0.93E-01   13.9     0.00029651     -7427.2132066188 -5.66E-02
   202 OT LS       0.94E-01    5.3                    -7427.2682026773
   203 OT CG       0.94E-01   13.9     0.00029109     -7427.2682050812 -5.50E-02
   204 OT LS       0.94E-01    5.3                    -7427.3212165013
   205 OT CG       0.94E-01   13.9     0.00028526     -7427.3212165006 -5.30E-02
   206 OT LS       0.95E-01    5.3                    -7427.3726603055
   207 OT CG       0.95E-01   13.9     0.00028000     -7427.3726660359 -5.14E-02
   208 OT LS       0.94E-01    5.3                    -7427.4220902301
   209 OT CG       0.94E-01   13.9     0.00027520     -7427.4220907364 -4.94E-02
   210 OT LS       0.94E-01    5.3                    -7427.4697218915
   211 OT CG       0.94E-01   13.9     0.00027124     -7427.4697222001 -4.76E-02
   212 OT LS       0.93E-01    5.4                    -7427.5154784324
   213 OT CG       0.93E-01   14.0     0.00026613     -7427.5154839744 -4.58E-02
   214 OT LS       0.93E-01    5.3                    -7427.5596146214
   215 OT CG       0.93E-01   13.9     0.00026120     -7427.5596147870 -4.41E-02
   216 OT LS       0.94E-01    5.3                    -7427.6023136078
   217 OT CG       0.94E-01   13.9     0.00025564     -7427.6023144338 -4.27E-02
   218 OT LS       0.95E-01    5.3                    -7427.6436887920
   219 OT CG       0.95E-01   15.9     0.00025152     -7427.6436941265 -4.14E-02
   220 OT LS       0.94E-01    8.0                    -7427.6834674879
   221 OT CG       0.94E-01   13.9     0.00024769     -7427.6834694967 -3.98E-02
   222 OT LS       0.94E-01    5.3                    -7427.7217461064
   223 OT CG       0.94E-01   13.9     0.00024316     -7427.7217482166 -3.83E-02
   224 OT LS       0.94E-01    5.5                    -7427.7587381778
   225 OT CG       0.94E-01   14.0     0.00023833     -7427.7587384784 -3.70E-02
   226 OT LS       0.94E-01    5.3                    -7427.7944468202
   227 OT CG       0.94E-01   14.0     0.00023464     -7427.7944476376 -3.57E-02
   228 OT LS       0.94E-01    5.3                    -7427.8290629492
   229 OT CG       0.94E-01   13.9     0.00023065     -7427.8290629499 -3.46E-02
   230 OT LS       0.94E-01    5.3                    -7427.8625140495
   231 OT CG       0.94E-01   13.9     0.00022674     -7427.8625140453 -3.35E-02
   232 OT LS       0.94E-01    5.3                    -7427.8948984519
   233 OT CG       0.94E-01   13.9     0.00022273     -7427.8948985886 -3.24E-02
   234 OT LS       0.95E-01    5.3                    -7427.9262592612
   235 OT CG       0.95E-01   13.9     0.00021899     -7427.9262596680 -3.14E-02
   236 OT LS       0.95E-01    5.3                    -7427.9566518474
   237 OT CG       0.95E-01   14.0     0.00021611     -7427.9566519963 -3.04E-02
   238 OT LS       0.94E-01    5.3                    -7427.9859946359
   239 OT CG       0.94E-01   13.9     0.00021292     -7427.9859968807 -2.93E-02
   240 OT LS       0.94E-01    5.3                    -7428.0144848582
   241 OT CG       0.94E-01   13.9     0.00020946     -7428.0144848589 -2.85E-02
   242 OT LS       0.94E-01    5.3                    -7428.0421044324
   243 OT CG       0.94E-01   13.9     0.00020601     -7428.0421045409 -2.76E-02
   244 OT LS       0.95E-01    5.3                    -7428.0690242967
   245 OT CG       0.95E-01   13.9     0.00020321     -7428.0690257505 -2.69E-02
   246 OT LS       0.95E-01    5.3                    -7428.0951458913
   247 OT CG       0.95E-01   13.9     0.00020059     -7428.0951461301 -2.61E-02
   248 OT LS       0.95E-01    5.3                    -7428.1205746255
   249 OT CG       0.95E-01   14.6     0.00019814     -7428.1205746393 -2.54E-02
   250 OT LS       0.94E-01    7.4                    -7428.1452737475
   251 OT CG       0.94E-01   14.0     0.00019519     -7428.1452741958 -2.47E-02
   252 OT LS       0.95E-01    5.3                    -7428.1693843281
   253 OT CG       0.95E-01   13.9     0.00019299     -7428.1693851398 -2.41E-02
   254 OT LS       0.95E-01    5.3                    -7428.1929252332
   255 OT CG       0.95E-01   13.9     0.00019058     -7428.1929252934 -2.35E-02
   256 OT LS       0.95E-01    5.3                    -7428.2159166354
   257 OT CG       0.95E-01   13.9     0.00018815     -7428.2159166869 -2.30E-02
   258 OT LS       0.95E-01    5.3                    -7428.2382942473
   259 OT CG       0.95E-01   13.9     0.00018521     -7428.2382942793 -2.24E-02
   260 OT LS       0.96E-01    5.3                    -7428.2601716949
   261 OT CG       0.96E-01   14.0     0.00018251     -7428.2601734363 -2.19E-02
   262 OT LS       0.96E-01    5.3                    -7428.2814453845
   263 OT CG       0.96E-01   13.9     0.00018039     -7428.2814454072 -2.13E-02
   264 OT LS       0.95E-01    5.3                    -7428.3021684359
   265 OT CG       0.95E-01   13.9     0.00017865     -7428.3021686126 -2.07E-02
   266 OT LS       0.94E-01    5.3                    -7428.3222492696
   267 OT CG       0.94E-01   13.9     0.00017630     -7428.3222521195 -2.01E-02
   268 OT LS       0.94E-01    5.3                    -7428.3418311266
   269 OT CG       0.94E-01   13.9     0.00017391     -7428.3418311560 -1.96E-02
   270 OT LS       0.95E-01    5.3                    -7428.3609660029
   271 OT CG       0.95E-01   14.0     0.00017124     -7428.3609663559 -1.91E-02
   272 OT LS       0.96E-01    5.3                    -7428.3796884864
   273 OT CG       0.96E-01   13.9     0.00016932     -7428.3796899836 -1.87E-02
   274 OT LS       0.95E-01    5.5                    -7428.3978488222
   275 OT CG       0.95E-01   14.0     0.00016706     -7428.3978499862 -1.82E-02
   276 OT LS       0.95E-01    5.3                    -7428.4155088764
   277 OT CG       0.95E-01   13.9     0.00016476     -7428.4155088922 -1.77E-02
   278 OT LS       0.95E-01    5.3                    -7428.4327262898
   279 OT CG       0.95E-01   14.0     0.00016227     -7428.4327263923 -1.72E-02
   280 OT LS       0.95E-01    5.3                    -7428.4495078306
   281 OT CG       0.95E-01   18.5     0.00016064     -7428.4495081853 -1.68E-02
   282 OT LS       0.95E-01    5.4                    -7428.4658881674
   283 OT CG       0.95E-01   13.9     0.00015829     -7428.4658884356 -1.64E-02
   284 OT LS       0.95E-01    5.3                    -7428.4818480899
   285 OT CG       0.95E-01   13.9     0.00015634     -7428.4818482837 -1.60E-02
   286 OT LS       0.95E-01    5.5                    -7428.4974141502
   287 OT CG       0.95E-01   13.9     0.00015452     -7428.4974141508 -1.56E-02
   288 OT LS       0.95E-01    5.3                    -7428.5125719612
   289 OT CG       0.95E-01   13.9     0.00015304     -7428.5125721118 -1.52E-02
   290 OT LS       0.95E-01    5.3                    -7428.5274261415
   291 OT CG       0.95E-01   13.9     0.00015114     -7428.5274261597 -1.49E-02
   292 OT LS       0.95E-01    5.3                    -7428.5419414577
   293 OT CG       0.95E-01   13.9     0.00014940     -7428.5419415090 -1.45E-02
   294 OT LS       0.95E-01    5.3                    -7428.5561638677
   295 OT CG       0.95E-01   13.9     0.00014774     -7428.5561639778 -1.42E-02
   296 OT LS       0.96E-01    5.3                    -7428.5700868373
   297 OT CG       0.96E-01   13.9     0.00014600     -7428.5700868565 -1.39E-02
   298 OT LS       0.96E-01    5.3                    -7428.5837556561
   299 OT CG       0.96E-01   14.0     0.00014454     -7428.5837560221 -1.37E-02
   300 OT LS       0.96E-01    5.3                    -7428.5970781953
   301 OT CG       0.96E-01   13.9     0.00014299     -7428.5970786335 -1.33E-02
   302 OT LS       0.95E-01    5.3                    -7428.6100840807
   303 OT CG       0.95E-01   13.9     0.00014164     -7428.6100841533 -1.30E-02
   304 OT LS       0.95E-01    5.3                    -7428.6227486958
   305 OT CG       0.95E-01   13.9     0.00013985     -7428.6227494298 -1.27E-02
   306 OT LS       0.96E-01    5.3                    -7428.6352353135
   307 OT CG       0.96E-01   13.9     0.00013824     -7428.6352368690 -1.25E-02
   308 OT LS       0.96E-01    5.3                    -7428.6474591764
   309 OT CG       0.96E-01   13.9     0.00013679     -7428.6474592067 -1.22E-02
   310 OT LS       0.96E-01    5.3                    -7428.6594329478
   311 OT CG       0.96E-01   16.3     0.00013551     -7428.6594329522 -1.20E-02
   312 OT LS       0.96E-01    5.3                    -7428.6711730625
   313 OT CG       0.96E-01   13.9     0.00013424     -7428.6711730712 -1.17E-02
   314 OT LS       0.95E-01    5.3                    -7428.6826464217
   315 OT CG       0.95E-01   13.9     0.00013317     -7428.6826466260 -1.15E-02
   316 OT LS       0.95E-01    5.3                    -7428.6939200762
   317 OT CG       0.95E-01   13.9     0.00013175     -7428.6939201102 -1.13E-02
   318 OT LS       0.95E-01    5.3                    -7428.7049616073
   319 OT CG       0.95E-01   13.9     0.00013022     -7428.7049616116 -1.10E-02
   320 OT LS       0.96E-01    5.3                    -7428.7157908117
   321 OT CG       0.96E-01   13.9     0.00012873     -7428.7157909891 -1.08E-02
   322 OT LS       0.96E-01    5.3                    -7428.7263827196
   323 OT CG       0.96E-01   13.9     0.00012744     -7428.7263827254 -1.06E-02
   324 OT LS       0.96E-01    5.3                    -7428.7367886046
   325 OT CG       0.96E-01   13.9     0.00012618     -7428.7367886601 -1.04E-02
   326 OT LS       0.96E-01    5.3                    -7428.7469719729
   327 OT CG       0.96E-01   13.9     0.00012513     -7428.7469720063 -1.02E-02
   328 OT LS       0.96E-01    5.3                    -7428.7569904064
   329 OT CG       0.96E-01   13.9     0.00012400     -7428.7569904082 -1.00E-02
   330 OT LS       0.96E-01    5.3                    -7428.7667947503
   331 OT CG       0.96E-01   13.9     0.00012292     -7428.7667948654 -9.80E-03
   332 OT LS       0.96E-01    5.3                    -7428.7764578617
   333 OT CG       0.96E-01   13.9     0.00012170     -7428.7764579384 -9.66E-03
   334 OT LS       0.96E-01    5.3                    -7428.7859109132
   335 OT CG       0.96E-01   13.9     0.00012060     -7428.7859109570 -9.45E-03
   336 OT LS       0.96E-01    5.5                    -7428.7951918158
   337 OT CG       0.96E-01   13.9     0.00011946     -7428.7951918158 -9.28E-03
   338 OT LS       0.95E-01    5.3                    -7428.8042589255
   339 OT CG       0.95E-01   13.9     0.00011831     -7428.8042590974 -9.07E-03
   340 OT LS       0.96E-01    5.3                    -7428.8131953500
   341 OT CG       0.96E-01   13.9     0.00011722     -7428.8131955377 -8.94E-03
   342 OT LS       0.96E-01    6.4                    -7428.8219966294
   343 OT CG       0.96E-01   16.8     0.00011622     -7428.8219967207 -8.80E-03
   344 OT LS       0.96E-01    5.3                    -7428.8306504441
   345 OT CG       0.96E-01   13.9     0.00011523     -7428.8306504449 -8.65E-03
   346 OT LS       0.96E-01    5.3                    -7428.8391719474
   347 OT CG       0.96E-01   13.9     0.00011409     -7428.8391719712 -8.52E-03
   348 OT LS       0.96E-01    5.5                    -7428.8475299589
   349 OT CG       0.96E-01   13.9     0.00011313     -7428.8475299599 -8.36E-03
   350 OT LS       0.96E-01    5.3                    -7428.8557364248
   351 OT CG       0.96E-01   13.9     0.00011221     -7428.8557364406 -8.21E-03
   352 OT LS       0.96E-01    5.3                    -7428.8637725003
   353 OT CG       0.96E-01   13.9     0.00011125     -7428.8637726764 -8.04E-03
   354 OT LS       0.95E-01    5.3                    -7428.8716431677
   355 OT CG       0.95E-01   13.9     0.00011021     -7428.8716432697 -7.87E-03
   356 OT LS       0.95E-01    5.3                    -7428.8793827736
   357 OT CG       0.95E-01   13.9     0.00010919     -7428.8793828012 -7.74E-03
   358 OT LS       0.96E-01    5.3                    -7428.8870161656
   359 OT CG       0.96E-01   13.9     0.00010812     -7428.8870163283 -7.63E-03
   360 OT LS       0.96E-01    5.3                    -7428.8945206491
   361 OT CG       0.96E-01   14.1     0.00010724     -7428.8945207065 -7.50E-03
   362 OT LS       0.96E-01    5.3                    -7428.9019080646
   363 OT CG       0.96E-01   13.9     0.00010615     -7428.9019080663 -7.39E-03
   364 OT LS       0.97E-01    5.3                    -7428.9091655764
   365 OT CG       0.97E-01   13.9     0.00010543     -7428.9091656288 -7.26E-03
   366 OT LS       0.96E-01    5.3                    -7428.9162964953
   367 OT CG       0.96E-01   13.9     0.00010479     -7428.9162966162 -7.13E-03
   368 OT LS       0.96E-01    5.3                    -7428.9232968386
   369 OT CG       0.96E-01   13.9     0.00010396     -7428.9232971205 -7.00E-03
   370 OT LS       0.95E-01    5.3                    -7428.9301756701
   371 OT CG       0.95E-01   13.9     0.00010311     -7428.9301756875 -6.88E-03
   372 OT LS       0.96E-01    5.3                    -7428.9369637764
   373 OT CG       0.96E-01   16.1     0.00010225     -7428.9369638440 -6.79E-03
   374 OT LS       0.96E-01    5.3                    -7428.9436466438
   375 OT CG       0.96E-01   13.9     0.00010139     -7428.9436466494 -6.68E-03
   376 OT LS       0.96E-01    5.3                    -7428.9502361804
   377 OT CG       0.96E-01   13.9     0.00010039     -7428.9502362393 -6.59E-03
   378 OT LS       0.96E-01    5.3                    -7428.9567210123
   379 OT CG       0.96E-01   13.9     0.00009944     -7428.9567210974 -6.48E-03
   380 OT LS       0.96E-01    5.3                    -7428.9630743923
   381 OT CG       0.96E-01   13.9     0.00009855     -7428.9630744055 -6.35E-03
   382 OT LS       0.96E-01    5.3                    -7428.9693095151
   383 OT CG       0.96E-01   13.9     0.00009767     -7428.9693095203 -6.24E-03
   384 OT LS       0.96E-01    5.3                    -7428.9754245819
   385 OT CG       0.96E-01   14.1     0.00009671     -7428.9754245933 -6.12E-03
   386 OT LS       0.96E-01    5.3                    -7428.9814149846
   387 OT CG       0.96E-01   13.9     0.00009602     -7428.9814149911 -5.99E-03
   388 OT LS       0.96E-01    5.3                    -7428.9872988846
   389 OT CG       0.96E-01   13.9     0.00009514     -7428.9872989614 -5.88E-03
   390 OT LS       0.96E-01    5.3                    -7428.9930725239
   391 OT CG       0.96E-01   13.9     0.00009442     -7428.9930725254 -5.77E-03
   392 OT LS       0.96E-01    5.3                    -7428.9987727007
   393 OT CG       0.96E-01   13.9     0.00009355     -7428.9987727364 -5.70E-03
   394 OT LS       0.96E-01    5.3                    -7429.0043847335
   395 OT CG       0.96E-01   13.9     0.00009280     -7429.0043847805 -5.61E-03
   396 OT LS       0.96E-01    5.3                    -7429.0099075435
   397 OT CG       0.96E-01   13.9     0.00009214     -7429.0099075437 -5.52E-03
   398 OT LS       0.96E-01    5.3                    -7429.0153443170
   399 OT CG       0.96E-01   13.9     0.00009156     -7429.0153443296 -5.44E-03
   400 OT LS       0.96E-01    5.3                    -7429.0207021306
   401 OT CG       0.96E-01   13.9     0.00009078     -7429.0207021487 -5.36E-03
   402 OT LS       0.96E-01    5.3                    -7429.0259881865
   403 OT CG       0.96E-01   14.9     0.00009015     -7429.0259882569 -5.29E-03
   404 OT LS       0.96E-01    6.9                    -7429.0312145346
   405 OT CG       0.96E-01   15.3     0.00008954     -7429.0312145624 -5.23E-03
   406 OT LS       0.96E-01    5.3                    -7429.0363712061
   407 OT CG       0.96E-01   13.9     0.00008900     -7429.0363712058 -5.16E-03
   408 OT LS       0.96E-01    5.3                    -7429.0414548938
   409 OT CG       0.96E-01   13.9     0.00008821     -7429.0414549173 -5.08E-03
   410 OT LS       0.96E-01    5.3                    -7429.0464582859
   411 OT CG       0.96E-01   14.0     0.00008755     -7429.0464583094 -5.00E-03
   412 OT LS       0.96E-01    5.3                    -7429.0513844468
   413 OT CG       0.96E-01   13.9     0.00008697     -7429.0513844495 -4.93E-03
   414 OT LS       0.96E-01    5.3                    -7429.0562360851
   415 OT CG       0.96E-01   13.9     0.00008625     -7429.0562361066 -4.85E-03
   416 OT LS       0.96E-01    5.3                    -7429.0610248180
   417 OT CG       0.96E-01   13.9     0.00008577     -7429.0610248806 -4.79E-03
   418 OT LS       0.96E-01    5.3                    -7429.0657191570
   419 OT CG       0.96E-01   13.9     0.00008514     -7429.0657195018 -4.69E-03
   420 OT LS       0.96E-01    5.3                    -7429.0703411805
   421 OT CG       0.96E-01   13.9     0.00008451     -7429.0703411852 -4.62E-03
   422 OT LS       0.96E-01    5.3                    -7429.0749141797
   423 OT CG       0.96E-01   14.1     0.00008400     -7429.0749142495 -4.57E-03
   424 OT LS       0.96E-01    5.3                    -7429.0794246051
   425 OT CG       0.96E-01   13.9     0.00008332     -7429.0794246184 -4.51E-03
   426 OT LS       0.96E-01    5.3                    -7429.0838827522
   427 OT CG       0.96E-01   13.9     0.00008265     -7429.0838828612 -4.46E-03
   428 OT LS       0.96E-01    5.3                    -7429.0882767351
   429 OT CG       0.96E-01   13.9     0.00008212     -7429.0882767444 -4.39E-03
   430 OT LS       0.96E-01    5.3                    -7429.0926139296
   431 OT CG       0.96E-01   13.9     0.00008151     -7429.0926139297 -4.34E-03
   432 OT LS       0.97E-01    5.3                    -7429.0969036373
   433 OT CG       0.97E-01   13.9     0.00008101     -7429.0969036954 -4.29E-03
   434 OT LS       0.96E-01    5.3                    -7429.1011235647
   435 OT CG       0.96E-01   15.9     0.00008055     -7429.1011236351 -4.22E-03
   436 OT LS       0.96E-01    5.3                    -7429.1052932558
   437 OT CG       0.96E-01   13.9     0.00008003     -7429.1052932572 -4.17E-03
   438 OT LS       0.96E-01    5.3                    -7429.1094006026
   439 OT CG       0.96E-01   13.9     0.00007957     -7429.1094006201 -4.11E-03
   440 OT LS       0.96E-01    5.3                    -7429.1134710401
   441 OT CG       0.96E-01   13.9     0.00007910     -7429.1134710639 -4.07E-03
   442 OT LS       0.96E-01    5.3                    -7429.1174819651
   443 OT CG       0.96E-01   13.9     0.00007843     -7429.1174819983 -4.01E-03
   444 OT LS       0.96E-01    5.3                    -7429.1214359924
   445 OT CG       0.96E-01   13.9     0.00007791     -7429.1214360199 -3.95E-03
   446 OT LS       0.96E-01    5.3                    -7429.1253130401
   447 OT CG       0.96E-01   13.9     0.00007742     -7429.1253132000 -3.88E-03
   448 OT LS       0.96E-01    5.4                    -7429.1291362230
   449 OT CG       0.96E-01   13.9     0.00007684     -7429.1291362320 -3.82E-03
   450 OT LS       0.96E-01    5.3                    -7429.1329224191
   451 OT CG       0.96E-01   13.9     0.00007613     -7429.1329225329 -3.79E-03
   452 OT LS       0.96E-01    5.3                    -7429.1366546812
   453 OT CG       0.96E-01   13.9     0.00007567     -7429.1366547469 -3.73E-03
   454 OT LS       0.96E-01    5.3                    -7429.1403303469
   455 OT CG       0.96E-01   13.9     0.00007518     -7429.1403303840 -3.68E-03
   456 OT LS       0.96E-01    5.3                    -7429.1439667788
   457 OT CG       0.96E-01   13.9     0.00007475     -7429.1439667975 -3.64E-03
   458 OT LS       0.96E-01    5.3                    -7429.1475568952
   459 OT CG       0.96E-01   13.9     0.00007418     -7429.1475569017 -3.59E-03
   460 OT LS       0.96E-01    5.3                    -7429.1510963066
   461 OT CG       0.96E-01   14.0     0.00007367     -7429.1510963093 -3.54E-03
   462 OT LS       0.96E-01    5.3                    -7429.1545794462
   463 OT CG       0.96E-01   13.9     0.00007312     -7429.1545794621 -3.48E-03
   464 OT LS       0.96E-01    5.3                    -7429.1580092204
   465 OT CG       0.96E-01   15.9     0.00007261     -7429.1580092216 -3.43E-03
   466 OT LS       0.96E-01    9.5                    -7429.1613900202
   467 OT CG       0.96E-01   14.0     0.00007209     -7429.1613900203 -3.38E-03
   468 OT LS       0.96E-01    5.3                    -7429.1647154168
   469 OT CG       0.96E-01   13.9     0.00007151     -7429.1647154326 -3.33E-03
   470 OT LS       0.96E-01    5.3                    -7429.1679965886
   471 OT CG       0.96E-01   13.9     0.00007101     -7429.1679966088 -3.28E-03
   472 OT LS       0.96E-01    5.3                    -7429.1712334148
   473 OT CG       0.96E-01   14.0     0.00007054     -7429.1712334152 -3.24E-03
   474 OT LS       0.96E-01    5.3                    -7429.1744327094
   475 OT CG       0.96E-01   13.9     0.00006990     -7429.1744327218 -3.20E-03
   476 OT LS       0.97E-01    5.3                    -7429.1775821162
   477 OT CG       0.97E-01   13.9     0.00006953     -7429.1775821319 -3.15E-03
   478 OT LS       0.96E-01    5.3                    -7429.1806766500
   479 OT CG       0.96E-01   13.9     0.00006894     -7429.1806767997 -3.09E-03
   480 OT LS       0.96E-01    5.3                    -7429.1837181951
   481 OT CG       0.96E-01   13.9     0.00006862     -7429.1837181957 -3.04E-03
   482 OT LS       0.96E-01    5.3                    -7429.1867195151
   483 OT CG       0.96E-01   13.9     0.00006798     -7429.1867195589 -3.00E-03
   484 OT LS       0.96E-01    5.3                    -7429.1896858807
   485 OT CG       0.96E-01   14.0     0.00006749     -7429.1896860244 -2.97E-03
   486 OT LS       0.96E-01    5.3                    -7429.1926155108
   487 OT CG       0.96E-01   13.9     0.00006706     -7429.1926155225 -2.93E-03
   488 OT LS       0.97E-01    5.3                    -7429.1955172502
   489 OT CG       0.97E-01   13.9     0.00006662     -7429.1955172793 -2.90E-03
   490 OT LS       0.97E-01    5.3                    -7429.1983918854
   491 OT CG       0.97E-01   13.9     0.00006623     -7429.1983919249 -2.87E-03
   492 OT LS       0.96E-01    5.3                    -7429.2012132451
   493 OT CG       0.96E-01   13.9     0.00006591     -7429.2012133820 -2.82E-03
   494 OT LS       0.96E-01    5.3                    -7429.2039956404
   495 OT CG       0.96E-01   13.9     0.00006556     -7429.2039956938 -2.78E-03
   496 OT LS       0.96E-01    9.5                    -7429.2067437394
   497 OT CG       0.96E-01   14.3     0.00006518     -7429.2067437481 -2.75E-03
   498 OT LS       0.96E-01    5.3                    -7429.2094617684
   499 OT CG       0.96E-01   13.9     0.00006460     -7429.2094617704 -2.72E-03
   500 OT LS       0.97E-01    5.3                    -7429.2121491631

  Leaving inner SCF loop after reaching   500 steps.


  Electronic density on regular grids:      -3287.9999971173        0.0000028827
  Core density on regular grids:             3287.9999997998       -0.0000002002
  Total charge density on r-space grids:        0.0000026825
  Total charge density g-space grids:           0.0000026825

  Overlap energy of the core charge distribution:               0.00000892935437
  Self energy of the core charge distribution:             -19117.60169404330736
  Core Hamiltonian energy:                                   5424.75991028783574
  Hartree energy:                                            7997.57939367480776
  Exchange-correlation energy:                              -1731.80882238776053
  Dispersion energy:                                           -2.14094562399170

  Total energy:                                             -7429.21214916306235

  outer SCF iter =    1 RMS gradient =   0.65E-04 energy =      -7429.2121491631

  ----------------------------------- OT ---------------------------------------
  Minimizer      : CG                  : conjugate gradient
  Preconditioner : FULL_ALL            : diagonalization, state selective
  Precond_solver : DEFAULT
  Line search    : 2PNT                : 2 energies, one gradient
  stepsize       :    0.15000000                  energy_gap     :    0.00100000
  eps_taylor     :   0.10000E-15                  max_taylor     :             4
  ----------------------------------- OT ---------------------------------------

  Step     Update method      Time    Convergence         Total energy    Change
  ------------------------------------------------------------------------------
     1 OT CG       0.15E+00   59.2     0.00043549     -7429.2121492738 -2.69E-03
     2 OT LS       0.25E+00    4.9                    -7429.4773628350
     3 OT CG       0.25E+00   13.7     0.00002071     -7429.5266467481 -3.14E-01
     4 OT LS       0.85E-01    4.9                    -7429.5260004004
     5 OT CG       0.85E-01   13.7     0.00000467     -7429.5268905272 -2.44E-04
     6 OT LS       0.10E+00    5.0                    -7429.5269052733
     7 OT CG       0.10E+00   13.6     0.00000273     -7429.5269057867 -1.53E-05
     8 OT LS       0.79E-01    4.9                    -7429.5269093333
     9 OT CG       0.79E-01   13.6     0.00000109     -7429.5269097405 -3.95E-06
    10 OT LS       0.96E-01    4.9                    -7429.5269104719
    11 OT CG       0.96E-01   13.6     0.00000047     -7429.5269104946 -7.54E-07

  *** SCF run converged in    11 steps ***


  Electronic density on regular grids:      -3287.9999971170        0.0000028830
  Core density on regular grids:             3287.9999997998       -0.0000002002
  Total charge density on r-space grids:        0.0000026828
  Total charge density g-space grids:           0.0000026828

  Overlap energy of the core charge distribution:               0.00000892935437
  Self energy of the core charge distribution:             -19117.60169404330736
  Core Hamiltonian energy:                                   5424.44837217357963
  Hartree energy:                                            7997.63094797573285
  Exchange-correlation energy:                              -1731.86359990599772
  Dispersion energy:                                           -2.14094562399170

  Total energy:                                             -7429.52691049463101

  outer SCF iter =    2 RMS gradient =   0.47E-06 energy =      -7429.5269104946
  outer SCF loop converged in   2 iterations or  511 steps


 ENERGY| Total FORCE_EVAL ( QS ) energy [a.u.]:            -7429.526910644321106

 ATOMIC FORCES in [a.u.]

 # Atom   Kind   Element          X              Y              Z
      1      1      Ti          0.00000000     0.00000000     0.00000000
      2      2      Si          0.00000000     0.00000000     0.00000000
      3      2      Si          0.00000000     0.00000000     0.00000000
      4      2      Si          0.00000000     0.00000000     0.00000000
      5      2      Si          0.00000000     0.00000000     0.00000000
      6      2      Si          0.00000000     0.00000000     0.00000000
      7      2      Si          0.00000000     0.00000000     0.00000000
      8      2      Si          0.00000000     0.00000000     0.00000000
      9      2      Si          0.00000000     0.00000000     0.00000000
     10      2      Si          0.00000000     0.00000000     0.00000000
     11      2      Si          0.00000000     0.00000000     0.00000000
     12      2      Si          0.00000000     0.00000000     0.00000000
     13      2      Si          0.00000000     0.00000000     0.00000000
     14      2      Si          0.00000000     0.00000000     0.00000000
     15      2      Si          0.00000000     0.00000000     0.00000000
     16      2      Si          0.00000000     0.00000000     0.00000000
     17      2      Si          0.00000000     0.00000000     0.00000000
     18      2      Si          0.00000000     0.00000000     0.00000000
     19      2      Si          0.00000000     0.00000000     0.00000000
     20      2      Si          0.00000000     0.00000000     0.00000000
     21      2      Si          0.00000000     0.00000000     0.00000000
     22      2      Si          0.00000000     0.00000000     0.00000000
     23      2      Si          0.00000000     0.00000000     0.00000000
     24      2      Si          0.00000000     0.00000000     0.00000000
     25      2      Si          0.00000000     0.00000000     0.00000000
     26      2      Si          0.00000000     0.00000000     0.00000000
     27      2      Si          0.00000000     0.00000000     0.00000000
     28      2      Si          0.00000000     0.00000000     0.00000000
     29      2      Si          0.00000000     0.00000000     0.00000000
     30      2      Si          0.00000000     0.00000000     0.00000000
     31      2      Si          0.00000000     0.00000000     0.00000000
     32      2      Si          0.00000000     0.00000000     0.00000000
     33      2      Si          0.00000000     0.00000000     0.00000000
     34      2      Si          0.00000000     0.00000000     0.00000000
     35      2      Si          0.00000000     0.00000000     0.00000000
     36      2      Si          0.00000000     0.00000000     0.00000000
     37      2      Si          0.00000000     0.00000000     0.00000000
     38      2      Si          0.00000000     0.00000000     0.00000000
     39      2      Si          0.00000000     0.00000000     0.00000000
     40      2      Si          0.00000000     0.00000000     0.00000000
     41      2      Si          0.00000000     0.00000000     0.00000000
     42      2      Si          0.00000000     0.00000000     0.00000000
     43      2      Si          0.00000000     0.00000000     0.00000000
     44      2      Si          0.00000000     0.00000000     0.00000000
     45      2      Si          0.00000000     0.00000000     0.00000000
     46      2      Si          0.00000000     0.00000000     0.00000000
     47      2      Si          0.00000000     0.00000000     0.00000000
     48      2      Si          0.00000000     0.00000000     0.00000000
     49      2      Si          0.00000000     0.00000000     0.00000000
     50      2      Si          0.00000000     0.00000000     0.00000000
     51      2      Si          0.00000000     0.00000000     0.00000000
     52      2      Si          0.00000000     0.00000000     0.00000000
     53      2      Si          0.00000000     0.00000000     0.00000000
     54      2      Si          0.00000000     0.00000000     0.00000000
     55      2      Si          0.00000000     0.00000000     0.00000000
     56      2      Si          0.00000000     0.00000000     0.00000000
     57      2      Si          0.00000000     0.00000000     0.00000000
     58      2      Si          0.00000000     0.00000000     0.00000000
     59      2      Si          0.00000000     0.00000000     0.00000000
     60      2      Si          0.00000000     0.00000000     0.00000000
     61      2      Si          0.00000000     0.00000000     0.00000000
     62      2      Si          0.00000000     0.00000000     0.00000000
     63      2      Si          0.00000000     0.00000000     0.00000000
     64      2      Si          0.00000000     0.00000000     0.00000000
     65      2      Si          0.00000000     0.00000000     0.00000000
     66      2      Si          0.00000000     0.00000000     0.00000000
     67      2      Si          0.00000000     0.00000000     0.00000000
     68      2      Si          0.00000000     0.00000000     0.00000000
     69      2      Si          0.00000000     0.00000000     0.00000000
     70      2      Si          0.00000000     0.00000000     0.00000000
     71      2      Si          0.00000000     0.00000000     0.00000000
     72      2      Si          0.00000000     0.00000000     0.00000000
     73      2      Si          0.00000000     0.00000000     0.00000000
     74      2      Si          0.00000000     0.00000000     0.00000000
     75      2      Si          0.00000000     0.00000000     0.00000000
     76      2      Si          0.00000000     0.00000000     0.00000000
     77      2      Si          0.00000000     0.00000000     0.00000000
     78      2      Si          0.00000000     0.00000000     0.00000000
     79      2      Si          0.00000000     0.00000000     0.00000000
     80      2      Si          0.00000000     0.00000000     0.00000000
     81      2      Si          0.00000000     0.00000000     0.00000000
     82      2      Si          0.00000000     0.00000000     0.00000000
     83      2      Si          0.00000000     0.00000000     0.00000000
     84      2      Si          0.00000000     0.00000000     0.00000000
     85      2      Si          0.00000000     0.00000000     0.00000000
     86      2      Si          0.00000000     0.00000000     0.00000000
     87      2      Si          0.00000000     0.00000000     0.00000000
     88      2      Si          0.00000000     0.00000000     0.00000000
     89      2      Si          0.00000000     0.00000000     0.00000000
     90      2      Si          0.00000000     0.00000000     0.00000000
     91      2      Si          0.00000000     0.00000000     0.00000000
     92      2      Si          0.00000000     0.00000000     0.00000000
     93      2      Si          0.00000000     0.00000000     0.00000000
     94      2      Si          0.00000000     0.00000000     0.00000000
     95      2      Si          0.00000000     0.00000000     0.00000000
     96      2      Si          0.00000000     0.00000000     0.00000000
     97      2      Si          0.00000000     0.00000000     0.00000000
     98      2      Si          0.00000000     0.00000000     0.00000000
     99      2      Si          0.00000000     0.00000000     0.00000000
    100      2      Si          0.00000000     0.00000000     0.00000000
    101      2      Si          0.00000000     0.00000000     0.00000000
    102      2      Si          0.00000000     0.00000000     0.00000000
    103      2      Si          0.00000000     0.00000000     0.00000000
    104      2      Si          0.00000000     0.00000000     0.00000000
    105      2      Si          0.00000000     0.00000000     0.00000000
    106      2      Si          0.00000000     0.00000000     0.00000000
    107      2      Si          0.00000000     0.00000000     0.00000000
    108      2      Si          0.00000000     0.00000000     0.00000000
    109      2      Si          0.00000000     0.00000000     0.00000000
    110      2      Si          0.00000000     0.00000000     0.00000000
    111      2      Si          0.00000000     0.00000000     0.00000000
    112      2      Si          0.00000000     0.00000000     0.00000000
    113      2      Si          0.00000000     0.00000000     0.00000000
    114      2      Si          0.00000000     0.00000000     0.00000000
    115      2      Si          0.00000000     0.00000000     0.00000000
    116      2      Si          0.00000000     0.00000000     0.00000000
    117      2      Si          0.00000000     0.00000000     0.00000000
    118      2      Si          0.00000000     0.00000000     0.00000000
    119      2      Si          0.00000000     0.00000000     0.00000000
    120      2      Si          0.00000000     0.00000000     0.00000000
    121      2      Si          0.00000000     0.00000000     0.00000000
    122      2      Si          0.00000000     0.00000000     0.00000000
    123      2      Si          0.00000000     0.00000000     0.00000000
    124      2      Si          0.00000000     0.00000000     0.00000000
    125      2      Si          0.00000000     0.00000000     0.00000000
    126      2      Si          0.00000000     0.00000000     0.00000000
    127      2      Si          0.00000000     0.00000000     0.00000000
    128      2      Si          0.00000000     0.00000000     0.00000000
    129      2      Si          0.00000000     0.00000000     0.00000000
    130      2      Si          0.00000000     0.00000000     0.00000000
    131      2      Si          0.00000000     0.00000000     0.00000000
    132      2      Si          0.00000000     0.00000000     0.00000000
    133      2      Si          0.00000000     0.00000000     0.00000000
    134      2      Si          0.00000000     0.00000000     0.00000000
    135      2      Si          0.00000000     0.00000000     0.00000000
    136      2      Si          0.00000000     0.00000000     0.00000000
    137      2      Si          0.00000000     0.00000000     0.00000000
    138      2      Si          0.00000000     0.00000000     0.00000000
    139      2      Si          0.00000000     0.00000000     0.00000000
    140      2      Si          0.00000000     0.00000000     0.00000000
    141      2      Si          0.00000000     0.00000000     0.00000000
    142      2      Si          0.00000000     0.00000000     0.00000000
    143      2      Si          0.00000000     0.00000000     0.00000000
    144      2      Si          0.00000000     0.00000000     0.00000000
    145      2      Si          0.00000000     0.00000000     0.00000000
    146      2      Si          0.00000000     0.00000000     0.00000000
    147      2      Si          0.00000000     0.00000000     0.00000000
    148      2      Si          0.00000000     0.00000000     0.00000000
    149      2      Si          0.00000000     0.00000000     0.00000000
    150      2      Si          0.00000000     0.00000000     0.00000000
    151      2      Si          0.00000000     0.00000000     0.00000000
    152      2      Si          0.00000000     0.00000000     0.00000000
    153      2      Si          0.00000000     0.00000000     0.00000000
    154      2      Si          0.00000000     0.00000000     0.00000000
    155      2      Si          0.00000000     0.00000000     0.00000000
    156      2      Si          0.00000000     0.00000000     0.00000000
    157      2      Si          0.00000000     0.00000000     0.00000000
    158      2      Si          0.00000000     0.00000000     0.00000000
    159      2      Si          0.00000000     0.00000000     0.00000000
    160      2      Si          0.00000000     0.00000000     0.00000000
    161      2      Si          0.00000000     0.00000000     0.00000000
    162      2      Si          0.00000000     0.00000000     0.00000000
    163      2      Si          0.00000000     0.00000000     0.00000000
    164      2      Si          0.00000000     0.00000000     0.00000000
    165      2      Si          0.00000000     0.00000000     0.00000000
    166      2      Si          0.00000000     0.00000000     0.00000000
    167      2      Si          0.00000000     0.00000000     0.00000000
    168      2      Si          0.00000000     0.00000000     0.00000000
    169      2      Si          0.00000000     0.00000000     0.00000000
    170      2      Si          0.00000000     0.00000000     0.00000000
    171      2      Si          0.00000000     0.00000000     0.00000000
    172      2      Si          0.00000000     0.00000000     0.00000000
    173      2      Si          0.00000000     0.00000000     0.00000000
    174      2      Si          0.00000000     0.00000000     0.00000000
    175      2      Si          0.00000000     0.00000000     0.00000000
    176      2      Si          0.00000000     0.00000000     0.00000000
    177      2      Si          0.00000000     0.00000000     0.00000000
    178      2      Si          0.00000000     0.00000000     0.00000000
    179      2      Si          0.00000000     0.00000000     0.00000000
    180      2      Si          0.00000000     0.00000000     0.00000000
    181      2      Si          0.00000000     0.00000000     0.00000000
    182      2      Si          0.00000000     0.00000000     0.00000000
    183      2      Si          0.00000000     0.00000000     0.00000000
    184      2      Si          0.00000000     0.00000000     0.00000000
    185      2      Si          0.00000000     0.00000000     0.00000000
    186      2      Si          0.00000000     0.00000000     0.00000000
    187      2      Si          0.00000000     0.00000000     0.00000000
    188      2      Si          0.00000000     0.00000000     0.00000000
    189      2      Si          0.00000000     0.00000000     0.00000000
    190      2      Si          0.00000000     0.00000000     0.00000000
    191      2      Si          0.00000000     0.00000000     0.00000000
    192      3      O           0.00000000     0.00000000     0.00000000
    193      3      O           0.00000000     0.00000000     0.00000000
    194      3      O           0.00000000     0.00000000     0.00000000
    195      3      O           0.00000000     0.00000000     0.00000000
    196      3      O           0.00000000     0.00000000     0.00000000
    197      3      O           0.00000000     0.00000000     0.00000000
    198      3      O           0.00000000     0.00000000     0.00000000
    199      3      O           0.00000000     0.00000000     0.00000000
    200      3      O           0.00000000     0.00000000     0.00000000
    201      3      O           0.00000000     0.00000000     0.00000000
    202      3      O           0.00000000     0.00000000     0.00000000
    203      3      O           0.00000000     0.00000000     0.00000000
    204      3      O           0.00000000     0.00000000     0.00000000
    205      3      O           0.00000000     0.00000000     0.00000000
    206      3      O           0.00000000     0.00000000     0.00000000
    207      3      O           0.00000000     0.00000000     0.00000000
    208      3      O           0.00000000     0.00000000     0.00000000
    209      3      O           0.00000000     0.00000000     0.00000000
    210      3      O           0.00000000     0.00000000     0.00000000
    211      3      O           0.00000000     0.00000000     0.00000000
    212      3      O           0.00000000     0.00000000     0.00000000
    213      3      O           0.00000000     0.00000000     0.00000000
    214      3      O           0.00000000     0.00000000     0.00000000
    215      3      O           0.00000000     0.00000000     0.00000000
    216      3      O           0.00000000     0.00000000     0.00000000
    217      3      O           0.00000000     0.00000000     0.00000000
    218      3      O           0.00000000     0.00000000     0.00000000
    219      3      O           0.00000000     0.00000000     0.00000000
    220      3      O           0.00000000     0.00000000     0.00000000
    221      3      O           0.00000000     0.00000000     0.00000000
    222      3      O           0.00000000     0.00000000     0.00000000
    223      3      O           0.00000000     0.00000000     0.00000000
    224      3      O           0.00000000     0.00000000     0.00000000
    225      3      O           0.00000000     0.00000000     0.00000000
    226      3      O           0.00000000     0.00000000     0.00000000
    227      3      O           0.00000000     0.00000000     0.00000000
    228      3      O           0.00000000     0.00000000     0.00000000
    229      3      O           0.00000000     0.00000000     0.00000000
    230      3      O           0.00000000     0.00000000     0.00000000
    231      3      O           0.00000000     0.00000000     0.00000000
    232      3      O           0.00000000     0.00000000     0.00000000
    233      3      O           0.00000000     0.00000000     0.00000000
    234      3      O           0.00000000     0.00000000     0.00000000
    235      3      O           0.00000000     0.00000000     0.00000000
    236      3      O           0.00000000     0.00000000     0.00000000
    237      3      O           0.00000000     0.00000000     0.00000000
    238      3      O           0.00000000     0.00000000     0.00000000
    239      3      O           0.00000000     0.00000000     0.00000000
    240      3      O           0.00000000     0.00000000     0.00000000
    241      3      O           0.00000000     0.00000000     0.00000000
    242      3      O           0.00000000     0.00000000     0.00000000
    243      3      O           0.00000000     0.00000000     0.00000000
    244      3      O           0.00000000     0.00000000     0.00000000
    245      3      O           0.00000000     0.00000000     0.00000000
    246      3      O           0.00000000     0.00000000     0.00000000
    247      3      O           0.00000000     0.00000000     0.00000000
    248      3      O           0.00000000     0.00000000     0.00000000
    249      3      O           0.00000000     0.00000000     0.00000000
    250      3      O           0.00000000     0.00000000     0.00000000
    251      3      O           0.00000000     0.00000000     0.00000000
    252      3      O           0.00000000     0.00000000     0.00000000
    253      3      O           0.00000000     0.00000000     0.00000000
    254      3      O           0.00000000     0.00000000     0.00000000
    255      3      O           0.00000000     0.00000000     0.00000000
    256      3      O           0.00000000     0.00000000     0.00000000
    257      3      O           0.00000000     0.00000000     0.00000000
    258      3      O           0.00000000     0.00000000     0.00000000
    259      3      O           0.00000000     0.00000000     0.00000000
    260      3      O           0.00000000     0.00000000     0.00000000
    261      3      O           0.00000000     0.00000000     0.00000000
    262      3      O           0.00000000     0.00000000     0.00000000
    263      3      O           0.00000000     0.00000000     0.00000000
    264      3      O           0.00000000     0.00000000     0.00000000
    265      3      O           0.00000000     0.00000000     0.00000000
    266      3      O           0.00000000     0.00000000     0.00000000
    267      3      O           0.00000000     0.00000000     0.00000000
    268      3      O           0.00000000     0.00000000     0.00000000
    269      3      O           0.00000000     0.00000000     0.00000000
    270      3      O           0.00000000     0.00000000     0.00000000
    271      3      O           0.00000000     0.00000000     0.00000000
    272      3      O           0.00000000     0.00000000     0.00000000
    273      3      O           0.00000000     0.00000000     0.00000000
    274      3      O           0.00000000     0.00000000     0.00000000
    275      3      O           0.00000000     0.00000000     0.00000000
    276      3      O           0.00000000     0.00000000     0.00000000
    277      3      O           0.00000000     0.00000000     0.00000000
    278      3      O           0.00000000     0.00000000     0.00000000
    279      3      O           0.00000000     0.00000000     0.00000000
    280      3      O           0.00000000     0.00000000     0.00000000
    281      3      O           0.00000000     0.00000000     0.00000000
    282      3      O           0.00000000     0.00000000     0.00000000
    283      3      O           0.00000000     0.00000000     0.00000000
    284      3      O           0.00000000     0.00000000     0.00000000
    285      3      O           0.00000000     0.00000000     0.00000000
    286      3      O           0.00000000     0.00000000     0.00000000
    287      3      O           0.00000000     0.00000000     0.00000000
    288      3      O           0.00000000     0.00000000     0.00000000
    289      3      O           0.00000000     0.00000000     0.00000000
    290      3      O           0.00000000     0.00000000     0.00000000
    291      3      O           0.00000000     0.00000000     0.00000000
    292      3      O           0.00000000     0.00000000     0.00000000
    293      3      O           0.00000000     0.00000000     0.00000000
    294      3      O           0.00000000     0.00000000     0.00000000
    295      3      O           0.00000000     0.00000000     0.00000000
    296      3      O           0.00000000     0.00000000     0.00000000
    297      3      O           0.00000000     0.00000000     0.00000000
    298      3      O           0.00000000     0.00000000     0.00000000
    299      3      O           0.00000000     0.00000000     0.00000000
    300      3      O           0.00000000     0.00000000     0.00000000
    301      3      O           0.00000000     0.00000000     0.00000000
    302      3      O           0.00000000     0.00000000     0.00000000
    303      3      O           0.00000000     0.00000000     0.00000000
    304      3      O           0.00000000     0.00000000     0.00000000
    305      3      O           0.00000000     0.00000000     0.00000000
    306      3      O           0.00000000     0.00000000     0.00000000
    307      3      O           0.00000000     0.00000000     0.00000000
    308      3      O           0.00000000     0.00000000     0.00000000
    309      3      O           0.00000000     0.00000000     0.00000000
    310      3      O           0.00000000     0.00000000     0.00000000
    311      3      O           0.00000000     0.00000000     0.00000000
    312      3      O           0.00000000     0.00000000     0.00000000
    313      3      O           0.00000000     0.00000000     0.00000000
    314      3      O           0.00000000     0.00000000     0.00000000
    315      3      O           0.00000000     0.00000000     0.00000000
    316      3      O           0.00000000     0.00000000     0.00000000
    317      3      O           0.00000000     0.00000000     0.00000000
    318      3      O           0.00000000     0.00000000     0.00000000
    319      3      O           0.00000000     0.00000000     0.00000000
    320      3      O           0.00000000     0.00000000     0.00000000
    321      3      O           0.00000000     0.00000000     0.00000000
    322      3      O           0.00000000     0.00000000     0.00000000
    323      3      O           0.00000000     0.00000000     0.00000000
    324      3      O           0.00000000     0.00000000     0.00000000
    325      3      O           0.00000000     0.00000000     0.00000000
    326      3      O           0.00000000     0.00000000     0.00000000
    327      3      O           0.00000000     0.00000000     0.00000000
    328      3      O           0.00000000     0.00000000     0.00000000
    329      3      O           0.00000000     0.00000000     0.00000000
    330      3      O           0.00000000     0.00000000     0.00000000
    331      3      O           0.00000000     0.00000000     0.00000000
    332      3      O           0.00000000     0.00000000     0.00000000
    333      3      O           0.00000000     0.00000000     0.00000000
    334      3      O           0.00000000     0.00000000     0.00000000
    335      3      O           0.00000000     0.00000000     0.00000000
    336      3      O           0.00000000     0.00000000     0.00000000
    337      3      O           0.00000000     0.00000000     0.00000000
    338      3      O           0.00000000     0.00000000     0.00000000
    339      3      O           0.00000000     0.00000000     0.00000000
    340      3      O           0.00000000     0.00000000     0.00000000
    341      3      O           0.00000000     0.00000000     0.00000000
    342      3      O           0.00000000     0.00000000     0.00000000
    343      3      O           0.00000000     0.00000000     0.00000000
    344      3      O           0.00000000     0.00000000     0.00000000
    345      3      O           0.00000000     0.00000000     0.00000000
    346      3      O           0.00000000     0.00000000     0.00000000
    347      3      O           0.00000000     0.00000000     0.00000000
    348      3      O           0.00000000     0.00000000     0.00000000
    349      3      O           0.00000000     0.00000000     0.00000000
    350      3      O           0.00000000     0.00000000     0.00000000
    351      3      O           0.00000000     0.00000000     0.00000000
    352      3      O           0.00000000     0.00000000     0.00000000
    353      3      O           0.00000000     0.00000000     0.00000000
    354      3      O           0.00000000     0.00000000     0.00000000
    355      3      O           0.00000000     0.00000000     0.00000000
    356      3      O           0.00000000     0.00000000     0.00000000
    357      3      O           0.00000000     0.00000000     0.00000000
    358      3      O           0.00000000     0.00000000     0.00000000
    359      3      O           0.00000000     0.00000000     0.00000000
    360      3      O           0.00000000     0.00000000     0.00000000
    361      3      O           0.00000000     0.00000000     0.00000000
    362      3      O           0.00000000     0.00000000     0.00000000
    363      3      O           0.00000000     0.00000000     0.00000000
    364      3      O           0.00000000     0.00000000     0.00000000
[...]
 flops  2025 x   268 x   675        4554121320000       0.0%    100.0%      0.0%
 flops  2028 x   268 x   675        4560868166400       0.0%    100.0%      0.0%
 flops  2033 x   256 x   160        5352037416960       0.0%    100.0%      0.0%
 flops    13 x    32 x     5        5352696660480       0.0%    100.0%      0.0%
 flops     5 x    32 x    13        5352696660480       0.0%    100.0%      0.0%
 flops  2025 x   256 x   128        5686375219200       0.0%    100.0%      0.0%
 flops  2028 x   256 x   128        5694799478784       0.0%    100.0%      0.0%
 flops  2033 x   268 x   128        5976441782272       0.0%    100.0%      0.0%
 flops   416 x   268 x   675        6261316588800       0.0%    100.0%      0.0%
 flops   396 x   288 x   675        6405089644800       0.0%    100.0%      0.0%
 flops   416 x   288 x   128        6777275940864       0.0%    100.0%      0.0%
 flops    13 x    13 x   160        7808372058240       0.0%    100.0%      0.0%
 flops  2025 x   256 x   675        8700410880000       0.0%    100.0%      0.0%
 flops  2028 x   256 x   675        8713300377600       0.0%    100.0%      0.0%
 flops  2033 x   288 x   160        9031563141120       0.0%    100.0%      0.0%
 flops  2033 x   268 x   675        9144225820800       0.0%    100.0%      0.0%
 flops  2025 x   288 x   128        9595758182400       0.0%    100.0%      0.0%
 flops  2028 x   288 x   128        9609974120448       0.0%    100.0%      0.0%
 flops  2033 x   256 x   128       11417679822848       0.0%    100.0%      0.0%
 flops   416 x   256 x   675       11961918259200       0.0%    100.0%      0.0%
 flops  2025 x   288 x   675       14681943360000       0.0%    100.0%      0.0%
 flops  2028 x   288 x   675       14703694387200       0.0%    100.0%      0.0%
 flops    13 x    13 x   128       16657860390912       0.0%    100.0%      0.0%
 flops  2033 x   256 x   675       17469565747200       0.0%    100.0%      0.0%
 flops  2033 x   288 x   128       19267334701056       0.0%    100.0%      0.0%
 flops   416 x   288 x   675       20185737062400       0.0%    100.0%      0.0%
 flops  2033 x   288 x   675       29479892198400       0.0%    100.0%      0.0%
 flops    13 x    32 x    13      104062880780352       0.0%    100.0%      0.0%
 flops inhomo. stacks              72681610991616     100.0%      0.0%      0.0%
 flops total                       573.179753E+12      12.7%     87.3%      0.0%
 flops max/rank                     25.225383E+12      12.7%     87.3%      0.0%
 matmuls inhomo. stacks                    206568     100.0%      0.0%      0.0%
 matmuls total                        13524409472       0.0%    100.0%      0.0%
 number of processed stacks              18553503       1.1%     98.9%      0.0%
 average stack size                                     1.0     737.1       0.0
 marketing flops                   967.876249E+12
 -------------------------------------------------------------------------------
 # multiplications                          11201
 max memory usage/rank             992.395264E+06
 # max total images/rank                        3
 # max 3D layers                                1
 # MPI messages exchanged                 5107656
 MPI messages size (bytes):
  total size                         9.151407E+12
  min size                           0.000000E+00
  max size                          11.449856E+06
  average size                       1.791704E+06
 MPI breakdown and total messages size (bytes):
             size <=      128               30528                        0
       128 < size <=     8192                   0                        0
      8192 < size <=    32768                1152                 37748736
     32768 < size <=   131072                 576                 22579200
    131072 < size <=  4194304             4862280            6809482401240
   4194304 < size <= 16777216              213120            2341413078720
  16777216 < size                               0                        0
 -------------------------------------------------------------------------------

 *** WARNING in dbcsr_mm.F:294 :: Using a non-square number of MPI ranks ***
 *** might lead to poor performance. Used ranks: 24 Suggested: 25 49     ***

 -------------------------------------------------------------------------------
 -                                                                             -
 -                      DBCSR MESSAGE PASSING PERFORMANCE                      -
 -                                                                             -
 -------------------------------------------------------------------------------
 ROUTINE             CALLS      AVE VOLUME [Bytes]
 MP_Bcast              142                     12.
 MP_Allreduce        56623                    124.
 MP_Alltoall         51024                 788623.
 MP_ISend           516456                 808673.
 MP_IRecv           507964                 815041.
 -------------------------------------------------------------------------------

 -------------------------------------------------------------------------------
 -                                                                             -
 -                                GRID STATISTICS                              -
 -                                                                             -
 -------------------------------------------------------------------------------
 LP    KERNEL             BACKEND                              COUNT     PERCENT
 4     collocate ortho    REF                              230725838      50.21%
 4     integrate ortho    REF                              115362919      25.11%
 3     collocate ortho    REF                               49172038      10.70%
 3     integrate ortho    REF                               24586019       5.35%
 7     integrate ortho    REF                               13400956       2.92%
 2     collocate ortho    REF                               12618980       2.75%
 2     integrate ortho    REF                                6309490       1.37%
 6     integrate ortho    REF                                2869768       0.62%
 5     integrate ortho    REF                                1441432       0.31%
 5     collocate ortho    REF                                1416888       0.31%
 0     collocate general  REF                                 742224       0.16%
 3     integrate general  REF                                 726432       0.16%
 8     integrate ortho    REF                                  82294       0.02%
 6     collocate ortho    REF                                  28512       0.01%
 9     integrate ortho    REF                                   1656       0.00%
 -------------------------------------------------------------------------------

 MEMORY| Estimated peak process memory [MiB]                                 947

 -------------------------------------------------------------------------------
 -                                                                             -
 -                         MESSAGE PASSING PERFORMANCE                         -
 -                                                                             -
 -------------------------------------------------------------------------------

 ROUTINE             CALLS      AVE VOLUME [Bytes]
 MP_Group                5
 MP_Bcast            35002                 241662.
 MP_Allreduce        93366                   1236.
 MP_Sync               695
 MP_Alltoall         13624               33955202.
 MP_SendRecv          4232                  16354.
 MP_ISendRecv        85146                 127093.
 MP_Wait            168239
 MP_ISend            74176                 805410.
 MP_IRecv            74176                 805575.
 MP_Recv              6183                1402961.
 -------------------------------------------------------------------------------


 -------------------------------------------------------------------------------
 -                                                                             -
 -                           R E F E R E N C E S                               -
 -                                                                             -
 -------------------------------------------------------------------------------
 
 CP2K version 9.1, the CP2K developers group (2021).
 CP2K is freely available from https://www.cp2k.org/ .

 Kuehne,Thomas D.; Iannuzzi,Marcella; Del Ben,Mauro;
 Rybkin,Vladimir V.; Seewald,Patrick; Stein,Frederick; Laino,Teodoro;
 Khaliullin,Rustam Z.; Schuett,Ole; Schiffmann,Florian; Golze,Dorothea;
 Wilhelm,Jan; Chulkov,Sergey; Bani-Hashemian,Mohammad Hossein;
 Weber,Valery; Borstnik,Urban; Taillefumier,Mathieu;
 Jakobovits,Alice Shoshana; Lazzaro,Alfio; Pabst,Hans; Mueller,Tiziano;
 Schade,Robert; Guidon,Manuel; Andermatt,Samuel; Holmberg,Nico;
 Schenter,Gregory K.; Hehn,Anna; Bussy,Augustin; Belleflamme,Fabian;
 Tabacchi,Gloria; Gloess,Andreas; Lass,Michael; Bethune,Iain;
 Mundy,Christopher J.; Plessl,Christian; Watkins,Matt;
 VandeVondele,Joost; Krack,Matthias; Hutter,Juerg. 
 The Journal of Chemical Physics, 152 (19), (2020). 
 CP2K: An electronic structure and molecular dynamics software package -
 Quickstep: Efficient and accurate electronic structure calculations.
 https://doi.org/10.1063/5.0007045

 Goerigk, Lars; Hansen, Andreas; Bauer, Christoph; Ehrlich, Stephan;
 Najibi, Asim; Grimme, Stefan. , 19 (48), (2017). 
 A look at the density functional theory zoo with the advanced GMTKN55 database
 for general main group thermochemistry, kinetics and noncovalent interactions.
 https://doi.org/10.1039/C7CP04913G

 Schuett, Ole; Messmer, Peter; Hutter, Juerg; VandeVondele, Joost. 
 Electronic Structure Calculations on Graphics Processing Units, John
 Wiley & Sons, Ltd, 173-190 (2016). 
 GPU-Accelerated Sparse Matrix-Matrix Multiplication for
 Linear Scaling Density Functional Theory.
 https://doi.org/10.1002/9781118670712.ch8

 Heinecke, A; Henry, G; Hutchinson, M; Pabst, H. 
 Proceedings of Intl. Supercomputing Conference, 981-991 (2016). 
 LIBXSMM: Accelerating Small Matrix Multiplications
 by Runtime Code Generation.
 https://doi.org/10.1109/SC.2016.83

 Borstnik, U; VandeVondele, J; Weber, V; Hutter, J. 
 PARALLEL COMPUTING, 40 (5-6), 47-58 (2014). 
 Sparse matrix multiplication: The distributed block-compressed sparse
 row library.
 https://doi.org/10.1016/j.parco.2014.03.012

 Hutter, J; Iannuzzi, M; Schiffmann, F; VandeVondele, J. 
 WIREs Comput Mol Sci., 4 (1), 15-25 (2014). 
 CP2K: atomistic simulations of condensed matter systems.
 https://doi.org/10.1002/wcms.1159

 Grimme, S; Ehrlich, S; Goerigk, L. 
 JOURNAL OF COMPUTATIONAL CHEMISTRY, 32, 1456 (2011). 
 Effect of the damping function in dispersion corrected density functional theory.
 https://doi.org/10.1002/jcc.21759

 Grimme, S; Antony, J; Ehrlich, S; Krieg, H. 
 JOURNAL OF CHEMICAL PHYSICS, 132 (15), 154104 (2010). 
 A consistent and accurate ab initio parametrization of density
 functional dispersion correction (DFT-D) for the 94 elements H-Pu.
 https://doi.org/10.1063/1.3382344

 VandeVondele, J; Hutter, J. 
 JOURNAL OF CHEMICAL PHYSICS, 127 (11), 114105 (2007). 
 Gaussian basis sets for accurate calculations on molecular systems in
 gas and condensed phases.
 https://doi.org/10.1063/1.2770708

 Kuhne, TD; Krack, M; Mohamed, FR; Parrinello, M. 
 PHYSICAL REVIEW LETTERS, 98 (6), 066401 (2007). 
 Efficient and accurate Car-Parrinello-like approach to
 Born-Oppenheimer molecular dynamics.
 https://doi.org/10.1103/PhysRevLett.98.066401

 Krack, M. 
 THEORETICAL CHEMISTRY ACCOUNTS, 114 (1-3), 145-152 (2005). 
 Pseudopotentials for H to Kr optimized for gradient-corrected
 exchange-correlation functionals.
 https://doi.org/10.1007/s00214-005-0655-y

 VandeVondele, J; Krack, M; Mohamed, F; Parrinello, M; Chassaing, T;
 Hutter, J. COMPUTER PHYSICS COMMUNICATIONS, 167 (2), 103-128 (2005). 
 QUICKSTEP: Fast and accurate density functional calculations using a
 mixed Gaussian and plane waves approach.
 https://doi.org/10.1016/j.cpc.2004.12.014

 Frigo, M; Johnson, SG. 
 PROCEEDINGS OF THE IEEE, 93 (2), 216-231 (2005). 
 The design and implementation of FFTW3.
 https://doi.org/10.1109/JPROC.2004.840301

 Kolafa, J. 
 JOURNAL OF COMPUTATIONAL CHEMISTRY, 25 (3), 335-342 (2004). 
 Time-reversible always stable predictor-corrector method for
 molecular dynamics of polarizable molecules.
 https://doi.org/10.1002/jcc.10385

 VandeVondele, J; Hutter, J. 
 JOURNAL OF CHEMICAL PHYSICS, 118 (10), 4365-4369 (2003). 
 An efficient orbital transformation method for electronic structure
 calculations.
 https://doi.org/10.1063/1.1543154

 Hartwigsen, C; Goedecker, S; Hutter, J. 
 PHYSICAL REVIEW B, 58 (7), 3641-3662 (1998). 
 Relativistic separable dual-space Gaussian pseudopotentials from H to Rn.
 https://doi.org/10.1103/PhysRevB.58.3641

 Lippert, G; Hutter, J; Parrinello, M. 
 MOLECULAR PHYSICS, 92 (3), 477-487 (1997). 
 A hybrid Gaussian and plane wave density functional scheme.
 https://doi.org/10.1080/002689797170220

 Perdew, JP; Burke, K; Ernzerhof, M. 
 PHYSICAL REVIEW LETTERS, 77 (18), 3865-3868 (1996). 
 Generalized gradient approximation made simple.
 https://doi.org/10.1103/PhysRevLett.77.3865

 Goedecker, S; Teter, M; Hutter, J. 
 PHYSICAL REVIEW B, 54 (3), 1703-1710 (1996). 
 Separable dual-space Gaussian pseudopotentials.
 https://doi.org/10.1103/PhysRevB.54.1703


 -------------------------------------------------------------------------------
 -                                                                             -
 -                                T I M I N G                                  -
 -                                                                             -
 -------------------------------------------------------------------------------
 SUBROUTINE                       CALLS  ASD         SELF TIME        TOTAL TIME
                                MAXIMUM       AVERAGE  MAXIMUM  AVERAGE  MAXIMUM
 CP2K                                 1  1.0     0.05     0.05 10311.88 10311.92
 cp_geo_opt                           1  2.0     0.00     0.00 10310.15 10310.20
 geoopt_bfgs                          1  3.0     0.30     0.33 10310.15 10310.20
 cp_eval_at                          47  4.0     0.01     0.08 10262.23 10262.27
 qs_forces                           46  5.0     0.02     0.02 10181.18 10181.21
 qs_energies                         47  6.0     0.01     0.01  9631.68  9631.89
 scf_env_do_scf                      47  7.0     0.00     0.01  9255.03  9255.11
 scf_env_do_scf_inner_loop          745  8.0     0.02     0.07  7104.32  7114.56
 rebuild_ks_matrix                  791  9.8     0.01     0.01  3295.56  3297.80
 qs_ks_build_kohn_sham_matrix       791 10.8     0.14     0.17  3295.56  3297.79
 qs_ks_update_qs_env                793  9.0     0.01     0.01  2843.39  2845.41
 dbcsr_multiply_generic           11201 13.7     1.10     1.18  2788.85  2808.54
 qs_scf_new_mos                     745  9.0     0.01     0.01  2711.34  2715.48
 qs_scf_loop_do_ot                  745 10.0     0.01     0.01  2711.34  2715.47
 ot_scf_mini                        745 11.0     0.04     0.05  2557.88  2560.89
 multiply_cannon                  11201 14.7     1.46     1.77  2408.58  2462.65
 multiply_cannon_loop             11201 15.7     2.24     2.53  2341.23  2397.70
 init_scf_loop                       48  8.0     0.00     0.00  2139.08  2139.15
 multiply_cannon_multrec         134412 16.7  1891.66  2016.05  1891.90  2016.29
 qs_rho_update_rho                  792  9.1     0.01     0.01  1936.79  1939.94
 calculate_rho_elec                 792 10.1     3.54     3.67  1936.79  1939.93
 prepare_preconditioner              48  9.0     0.00     0.00  1827.39  1827.75
 make_preconditioner                 48 10.0     0.00     0.00  1760.35  1760.66
 make_full_all                       48 11.0     0.09     0.11  1704.03  1705.20
 sum_up_and_integrate               442 11.7     2.30     2.33  1681.36  1681.65
 integrate_v_rspace                 442 12.7     0.02     0.03  1679.06  1679.34
 ot_mini                            745 12.0     0.01     0.01  1580.76  1583.83
 grid_collocate_task_list           792 11.1  1417.42  1465.95  1417.42  1465.95
 grid_integrate_task_list           442 13.7  1425.14  1443.31  1425.14  1443.31
 qs_vxc_create                      791 11.8     0.02     0.02  1317.46  1318.08
 pw_transfer                      13174 13.3     1.16     1.26  1297.20  1308.44
 cp_fm_syevd                        690 13.7     0.02     0.02  1304.33  1305.53
 cp_fm_syevd_base                   690 14.7  1297.08  1297.40  1297.08  1297.40
 fft_wrap_pw1pw2                  11592 14.3     0.18     0.20  1278.90  1290.17
 fft_wrap_pw1pw2_180               6656 15.6    99.53   101.27  1236.60  1248.29
 fft3d_ps                         11592 16.3   545.72   552.67   957.22   969.70
 apply_preconditioner_dbcsr         444 14.0     0.00     0.00   929.06   937.97
 apply_all                          444 15.0     0.77     0.80   929.06   937.97
 xc_vxc_pw_create                   442 12.7    32.39    35.02   916.54   917.16
 xc_rho_set_and_dset_create         791 13.8     7.08     7.24   904.12   910.23
 ot_new_cg_direction                396 13.0     0.01     0.01   846.66   846.68
 qs_ot_get_derivative               396 13.0     0.01     0.01   728.74   731.71
 mp_waitall_1                    721319 17.5   544.82   643.29   544.82   643.29
 multiply_cannon_metrocomm3      134412 16.7     0.55     0.66   423.39   534.33
 density_rs2pw                      792 11.1     0.06     0.07   497.38   523.25
 qs_ks_update_qs_env_forces          46  6.0     0.00     0.00   456.11   456.32
 qs_ot_get_p                        793 11.9     0.01     0.01   441.63   446.78
 xc_exc_calc                        349 13.0     1.54     1.55   400.90   400.92
 xc_functional_eval                 791 14.8     0.01     0.02   390.80   396.74
 pbe_lda_eval                       791 15.8   390.79   396.73   390.79   396.73
 qs_ot_get_orbitals                 745 12.0     0.01     0.01   320.76   323.29
 rs_pw_transfer                    6263 13.0     0.11     0.12   290.10   319.01
 qs_ot_get_derivative_diag          249 14.0     0.01     0.02   310.42   312.10
 init_scf_run                        47  7.0     0.00     0.00   287.60   287.61
 scf_env_initial_rho_setup           47  8.0     0.00     0.00   287.59   287.61
 wfi_extrapolate                     47  9.0     0.01     0.01   282.35   282.36
 cp_gemm                            774 10.2     0.00     0.00   276.01   278.84
 cp_gemm_fm_gemm                    774 11.2     0.00     0.00   276.01   278.84
 cp_fm_gemm                         774 12.2   276.01   278.84   276.01   278.84
 x_to_yz                           5817 18.1   188.28   189.54   262.52   267.13
 make_m2s                         22402 14.7     0.94     1.03   262.20   265.29
 cp_fm_cholesky_reduce               48 12.0   245.33   245.82   245.33   245.82
 qs_ot_p2m_diag                     500 13.0     5.45     5.89   240.91   242.16
 cp_dbcsr_syevd                     596 13.6     0.05     0.08   222.90   223.96
 potential_pw2rs                    442 13.7     0.19     0.26   221.00   221.24
 -------------------------------------------------------------------------------

 The number of warnings for this run is : 2
 
 -------------------------------------------------------------------------------
  **** **** ******  **  PROGRAM ENDED AT                 2022-09-04 20:40:38.504
 ***** ** ***  *** **   PROGRAM RAN ON             node1054.palmetto.clemson.edu
 **    ****   ******    PROGRAM RAN BY                                   xiutinc
 ***** **    ** ** **   PROGRAM PROCESS ID                               3695548
  **** **  *******  **  PROGRAM STOPPED IN    /scratch1/xiutinc/CP2K-96998.pbs02
