 DBCSR| CPU Multiplication driver                                           XSMM (U)
 DBCSR| Multrec recursion limit                                              512 (U)
 DBCSR| Multiplication stack size                                           1000 (D)
 DBCSR| Maximum elements for images                                    UNLIMITED (U)
 DBCSR| Multiplicative factor virtual images                                   1 (U)
 DBCSR| Use multiplication densification                                       T (D)
 DBCSR| Multiplication size stacks                                             3 (U)
 DBCSR| Use memory pool for CPU allocation                                     F (U)
 DBCSR| Number of 3D layers                                               SINGLE (U)
 DBCSR| Use MPI memory allocation                                              F (U)
 DBCSR| Use RMA algorithm                                                      F (U)
 DBCSR| Use Communication thread                                               T (U)
 DBCSR| Communication thread load                                             87 (D)
 DBCSR| MPI: My process id                                                     0
 DBCSR| MPI: Number of processes                                              24
 DBCSR| OMP: Current number of threads                                         1
 DBCSR| OMP: Max number of threads                                             1
 DBCSR| Split modifier for TAS multiplication algorithm                  1.0E+00 (U)


  **** **** ******  **  PROGRAM STARTED AT               2025-01-28 14:24:15.756
 ***** ** ***  *** **   PROGRAM STARTED ON                     c0139.ten.osc.edu
 **    ****   ******    PROGRAM STARTED BY                               xiutinc
 ***** **    ** ** **   PROGRAM PROCESS ID                                367573
  **** **  *******  **  PROGRAM STARTED IN /fs/scratch/PAS2536/xiutinc/386235.ad
                                           l02_01_02_propanol

 CP2K| version string:                                       CP2K version 2023.2
 CP2K| source code revision number:                                  git:65cca6c
 CP2K| cp2kflags: omp libint fftw3 libxc parallel scalapack xsmm plumed2 mkl sir
 CP2K|            ius
 CP2K| is freely available from                            https://www.cp2k.org/
 CP2K| Program compiled at                          Mon Oct 14 13:01:09 EDT 2024
 CP2K| Program compiled on                             cardinal-rw02.ten.osc.edu
 CP2K| Program compiled for                       linux-rhel9-sapphirerapids-gcc
 CP2K| Data directory path    /apps/spack/0.21/cardinal/linux-rhel9-sapphirerapi
 CP2K| Input file name                                             intE05_aq.inp

 GLOBAL| Force Environment number                                              1
 GLOBAL| Basis set file name                                          BASIS_file
 GLOBAL| Potential file name                                     POTENTIALS_file
 GLOBAL| MM Potential file name                                     MM_POTENTIAL
 GLOBAL| Coordinate file name                                    ./intE05_aq.xyz
 GLOBAL| Method name                                                        CP2K
 GLOBAL| Project name                                                  intE05_aq
 GLOBAL| Run type                                                        GEO_OPT
 GLOBAL| FFT library                                                       FFTW3
 GLOBAL| Diagonalization library                                       ScaLAPACK
 GLOBAL| DGEMM library                                                      BLAS
 GLOBAL| Orthonormality check for eigenvectors                          DISABLED
 GLOBAL| Matrix multiplication library                                 ScaLAPACK
 GLOBAL| All-to-all communication in single precision                          F
 GLOBAL| FFTs using library dependent lengths                                  F
 GLOBAL| Grid backend                                                       AUTO
 GLOBAL| Global print level                                                  LOW
 GLOBAL| MPI I/O enabled                                                       T
 GLOBAL| Total number of message passing processes                            24
 GLOBAL| Number of threads for this process                                    1
 GLOBAL| This output is from process                                           0
 GLOBAL| Stack size for threads created by OpenMP (OMP_STACKSIZE)        default
 GLOBAL| CPU model name                            Intel(R) Xeon(R) CPU Max 9470
 GLOBAL| CPUID                                                              1003

 MEMORY| system memory details [Kb]
 MEMORY|                        rank 0           min           max       average
 MEMORY| MemTotal            662060572     662060572     662060572     662060572
 MEMORY| MemFree             607018412     607018412     607018412     607018412
 MEMORY| Buffers                 89540         89540         89540         89540
 MEMORY| Cached               26777168      26777168      26777168      26777168
 MEMORY| Slab                  1147736       1147736       1147736       1147736
 MEMORY| SReclaimable           373696        373696        373696        373696
 MEMORY| MemLikelyFree       634258816     634258816     634258816     634258816


 *******************************************************************************
 *******************************************************************************
 **                                                                           **
 **     #####                         ##              ##                      **
 **    ##   ##            ##          ##              ##                      **
 **   ##     ##                       ##            ######                    **
 **   ##     ##  ##   ##  ##   #####  ##  ##   ####   ##    #####    #####    **
 **   ##     ##  ##   ##  ##  ##      ## ##   ##      ##   ##   ##  ##   ##   **
 **   ##  ## ##  ##   ##  ##  ##      ####     ###    ##   ######   ######    **
 **    ##  ###   ##   ##  ##  ##      ## ##      ##   ##   ##       ##        **
 **     #######   #####   ##   #####  ##  ##  ####    ##    #####   ##        **
 **           ##                                                    ##        **
 **                                                                           **
 **                                                ... make the atoms dance   **
 **                                                                           **
 **            Copyright (C) by CP2K developers group (2000-2023)             **
 **                      J. Chem. Phys. 152, 194103 (2020)                    **
 **                                                                           **
 *******************************************************************************


 TOTAL NUMBERS AND MAXIMUM NUMBERS

  Total number of            - Atomic kinds:                                   5
                             - Atoms:                                        645
                             - Shell sets:                                   645
                             - Shells:                                      3132
                             - Primitive Cartesian functions:               3036
                             - Cartesian basis functions:                   8615
                             - Spherical basis functions:                   8014

  Maximum angular momentum of- Orbital basis functions:                        3
                             - Local part of the GTH pseudopotential:          2
                             - Non-local part of the GTH pseudopotential:      3


 SCF PARAMETERS         Density guess:                                   RESTART
                        --------------------------------------------------------
                        max_scf:                                             500
                        max_scf_history:                                       0
                        max_diis:                                              4
                        --------------------------------------------------------
                        eps_scf:                                        1.00E-06
                        eps_scf_history:                                0.00E+00
                        eps_diis:                                       1.00E-01
                        eps_eigval:                                     1.00E-05
                        --------------------------------------------------------
                        level_shift [a.u.]:                             0.000000
                        --------------------------------------------------------
                        Outer loop SCF in use 
                        No variables optimised in outer loop
                        eps_scf                                         1.00E-06
                        max_scf                                               50
                        No outer loop optimization
                        step_size                                       5.00E-01

 BFGS| Use rational function optimization for step estimation:                NO
 BFGS| Use model Hessian for initial guess:                                  YES
 BFGS| Restart Hessian:                                                       NO
 BFGS| Trust radius:                                                       0.472

 *******************************************************************************
 ***                     STARTING GEOMETRY OPTIMIZATION                      ***
 ***                                   BFGS                                  ***
 *******************************************************************************

 Number of electrons:                                                       3238
 Number of occupied orbitals:                                               1619
 Number of molecular orbitals:                                              1619

 Number of orbital functions:                                               8014
 Number of independent orbital functions:                                   8014

 Extrapolation method: initial_guess

 *** WARNING in qs_initial_guess.F:305 :: User requested to restart the   ***
 *** wavefunction from the file named: intE05_aq-RESTART.wfn. This file   ***
 *** does not exist. Please check the existence of the file or change     ***
 *** properly the value of the keyword WFN_RESTART_FILE_NAME. Calculation ***
 *** continues using ATOMIC GUESS.                                        ***



 SCF WAVEFUNCTION OPTIMIZATION

  ----------------------------------- OT ---------------------------------------
  Minimizer      : CG                  : conjugate gradient
  Preconditioner : FULL_ALL            : diagonalization, state selective
  Precond_solver : DEFAULT
  Line search    : 2PNT                : 2 energies, one gradient
  stepsize       :    0.15000000                  energy_gap     :    0.00100000
  eps_taylor     :   0.10000E-15                  max_taylor     :             4
  ----------------------------------- OT ---------------------------------------

  Step     Update method      Time    Convergence         Total energy    Change
  ------------------------------------------------------------------------------
     1 OT CG       0.15E+00   21.3     0.01597268     -7054.1199845783 -7.05E+03
     2 OT LS       0.69E-01    2.5                    -7014.0088642143
     3 OT CG       0.69E-01    5.5     0.07176515     -6987.4198894374  6.67E+01
     4 OT LS       0.14E-01    2.4                    -5362.4873270927
     5 OT CG       0.14E-01    5.5     0.03411358     -6937.3639485145  5.01E+01
     6 OT LS       0.12E-01    2.4                    -6995.3427554146
     7 OT CG       0.12E-01    5.5     0.01456877     -6994.5975506684 -5.72E+01
     8 OT LS       0.49E-01    2.4                    -7025.1505694534
     9 OT CG       0.49E-01    5.5     0.01153137     -7086.3177350977 -9.17E+01
    10 OT LS       0.58E-01    2.4                    -7141.9866476169
    11 OT CG       0.58E-01    5.6     0.01381079     -7144.1442594497 -5.78E+01
    12 OT LS       0.34E-01    2.4                    -7166.9780079189
    13 OT CG       0.34E-01    5.6     0.00728885     -7186.9574508293 -4.28E+01
    14 OT LS       0.56E-01    2.4                    -7202.9803491692
    15 OT CG       0.56E-01    5.5     0.00608941     -7207.1474428735 -2.02E+01
    16 OT LS       0.69E-01    2.4                    -7224.6070486716
    17 OT CG       0.69E-01    5.6     0.00529536     -7224.7610991922 -1.76E+01
    18 OT LS       0.37E-01    2.4                    -7225.9929516169
    19 OT CG       0.37E-01    5.6     0.00373969     -7230.3794418651 -5.62E+00
    20 OT LS       0.96E-01    2.4                    -7235.7250608695
    21 OT CG       0.96E-01    5.6     0.00380269     -7238.5773527535 -8.20E+00
    22 OT LS       0.39E-01    2.4                    -7234.7838755472
    23 OT CG       0.39E-01    5.5     0.00271487     -7241.7135254682 -3.14E+00
    24 OT LS       0.97E-01    2.4                    -7244.6627282911
    25 OT CG       0.97E-01    5.5     0.00316500     -7246.0620699597 -4.35E+00
    26 OT LS       0.44E-01    2.4                    -7245.0133642412
    27 OT CG       0.44E-01    5.6     0.00234083     -7248.4890719548 -2.43E+00
    28 OT LS       0.93E-01    2.4                    -7250.8479944849
    29 OT CG       0.93E-01    5.5     0.00217400     -7251.7916722128 -3.30E+00
    30 OT LS       0.71E-01    2.4                    -7253.7823635776
    31 OT CG       0.71E-01    5.5     0.00217586     -7254.0623486166 -2.27E+00
    32 OT LS       0.72E-01    2.4                    -7256.2434734301
    33 OT CG       0.72E-01    5.5     0.00216506     -7256.2446539704 -2.18E+00
    34 OT LS       0.72E-01    2.4                    -7258.4657935822
    35 OT CG       0.72E-01    5.6     0.00193408     -7258.4670447343 -2.22E+00
    36 OT LS       0.89E-01    2.4                    -7260.6197911661
    37 OT CG       0.89E-01    5.6     0.00204027     -7260.6666631535 -2.20E+00
    38 OT LS       0.74E-01    2.4                    -7262.4727338964
    39 OT CG       0.74E-01    5.5     0.00178825     -7262.5492228457 -1.88E+00
    40 OT LS       0.85E-01    2.4                    -7264.2866092717
    41 OT CG       0.85E-01    5.5     0.00162533     -7264.3269322214 -1.78E+00
    42 OT LS       0.77E-01    2.4                    -7265.6781057296
    43 OT CG       0.77E-01    5.6     0.00157705     -7265.6975457165 -1.37E+00
    44 OT LS       0.80E-01    2.4                    -7266.9635101085
    45 OT CG       0.80E-01    5.5     0.00152486     -7266.9652658538 -1.27E+00
    46 OT LS       0.82E-01    2.4                    -7268.2034681769
    47 OT CG       0.82E-01    5.5     0.00135561     -7268.2052540580 -1.24E+00
    48 OT LS       0.98E-01    2.4                    -7269.3641664598
    49 OT CG       0.98E-01    5.5     0.00135769     -7269.3894672145 -1.18E+00
    50 OT LS       0.87E-01    2.4                    -7270.3809115993
    51 OT CG       0.87E-01    5.6     0.00134525     -7270.4007798321 -1.01E+00
    52 OT LS       0.85E-01    2.4                    -7271.3998309687
    53 OT CG       0.85E-01    5.6     0.00122253     -7271.3996019161 -9.99E-01
    54 OT LS       0.87E-01    2.4                    -7272.2513913369
    55 OT CG       0.87E-01    5.6     0.00119360     -7272.2515372327 -8.52E-01
    56 OT LS       0.88E-01    2.4                    -7273.0609047672
    57 OT CG       0.88E-01    5.6     0.00112719     -7273.0608246222 -8.09E-01
    58 OT LS       0.90E-01    2.4                    -7273.7912565793
    59 OT CG       0.90E-01    5.6     0.00105281     -7273.7915800479 -7.31E-01
    60 OT LS       0.88E-01    2.4                    -7274.4230172647
    61 OT CG       0.88E-01    5.6     0.00097480     -7274.4231449912 -6.32E-01
    62 OT LS       0.94E-01    2.4                    -7275.0046701988
    63 OT CG       0.94E-01    5.6     0.00094061     -7275.0072362820 -5.84E-01
    64 OT LS       0.90E-01    2.4                    -7275.5180138411
    65 OT CG       0.90E-01    5.6     0.00089899     -7275.5196286013 -5.12E-01
    66 OT LS       0.91E-01    2.4                    -7275.9942817984
    67 OT CG       0.91E-01    5.6     0.00083593     -7275.9943665551 -4.75E-01
    68 OT LS       0.93E-01    2.4                    -7276.4173046806
    69 OT CG       0.93E-01    5.6     0.00080520     -7276.4176094587 -4.23E-01
    70 OT LS       0.93E-01    2.4                    -7276.8081019760
    71 OT CG       0.93E-01    5.5     0.00077959     -7276.8081123231 -3.91E-01
    72 OT LS       0.91E-01    2.4                    -7277.1669499370
    73 OT CG       0.91E-01    5.6     0.00074221     -7277.1670834990 -3.59E-01
    74 OT LS       0.91E-01    2.4                    -7277.4936652695
    75 OT CG       0.91E-01    5.6     0.00068994     -7277.4936670220 -3.27E-01
    76 OT LS       0.96E-01    2.4                    -7277.7890164299
    77 OT CG       0.96E-01    5.5     0.00066542     -7277.7896120740 -2.96E-01
    78 OT LS       0.92E-01    2.4                    -7278.0543617942
    79 OT CG       0.92E-01    5.6     0.00063403     -7278.0547501527 -2.65E-01
    80 OT LS       0.93E-01    2.4                    -7278.2983037236
    81 OT CG       0.93E-01    5.6     0.00060561     -7278.2983354816 -2.44E-01
    82 OT LS       0.92E-01    2.4                    -7278.5174267406
    83 OT CG       0.92E-01    5.5     0.00057731     -7278.5174763863 -2.19E-01
    84 OT LS       0.95E-01    2.4                    -7278.7225098297
    85 OT CG       0.95E-01    5.5     0.00055454     -7278.7226847730 -2.05E-01
    86 OT LS       0.95E-01    2.4                    -7278.9113893084
    87 OT CG       0.95E-01    5.5     0.00053601     -7278.9113917979 -1.89E-01
    88 OT LS       0.95E-01    2.4                    -7279.0890887861
    89 OT CG       0.95E-01    5.5     0.00051925     -7279.0890958115 -1.78E-01
    90 OT LS       0.94E-01    2.4                    -7279.2531242081
    91 OT CG       0.94E-01    5.5     0.00049989     -7279.2531731661 -1.64E-01
    92 OT LS       0.95E-01    2.4                    -7279.4067448776
    93 OT CG       0.95E-01    5.5     0.00048097     -7279.4067607460 -1.54E-01
    94 OT LS       0.95E-01    2.4                    -7279.5490927077
    95 OT CG       0.95E-01    5.6     0.00046324     -7279.5490926436 -1.42E-01
    96 OT LS       0.95E-01    2.4                    -7279.6813495788
    97 OT CG       0.95E-01    5.5     0.00044501     -7279.6813495544 -1.32E-01
    98 OT LS       0.95E-01    2.4                    -7279.8034064481
    99 OT CG       0.95E-01    5.5     0.00042895     -7279.8034060416 -1.22E-01
   100 OT LS       0.96E-01    2.4                    -7279.9172081613
   101 OT CG       0.96E-01    5.5     0.00041478     -7279.9172105665 -1.14E-01
   102 OT LS       0.96E-01    2.4                    -7280.0237802086
   103 OT CG       0.96E-01    5.5     0.00040069     -7280.0237802013 -1.07E-01
   104 OT LS       0.96E-01    2.4                    -7280.1234569614
   105 OT CG       0.96E-01    5.6     0.00038665     -7280.1234569824 -9.97E-02
   106 OT LS       0.96E-01    2.4                    -7280.2169817713
   107 OT CG       0.96E-01    5.5     0.00037387     -7280.2169860554 -9.35E-02
   108 OT LS       0.97E-01    2.4                    -7280.3047447930
   109 OT CG       0.97E-01    5.5     0.00036188     -7280.3047470284 -8.78E-02
   110 OT LS       0.96E-01    2.4                    -7280.3863514311
   111 OT CG       0.96E-01    5.6     0.00034973     -7280.3863557468 -8.16E-02
   112 OT LS       0.96E-01    2.4                    -7280.4629655304
   113 OT CG       0.96E-01    5.5     0.00033865     -7280.4629662953 -7.66E-02
   114 OT LS       0.96E-01    2.4                    -7280.5345186573
   115 OT CG       0.96E-01    5.5     0.00032647     -7280.5345198891 -7.16E-02
   116 OT LS       0.97E-01    2.4                    -7280.6016541369
   117 OT CG       0.97E-01    5.6     0.00031797     -7280.6016626934 -6.71E-02
   118 OT LS       0.96E-01    2.5                    -7280.6646740709
   119 OT CG       0.96E-01    5.5     0.00030822     -7280.6646807652 -6.30E-02
   120 OT LS       0.96E-01    2.4                    -7280.7241593556
   121 OT CG       0.96E-01    5.5     0.00029912     -7280.7241597654 -5.95E-02
   122 OT LS       0.97E-01    2.4                    -7280.7804570615
   123 OT CG       0.97E-01    5.6     0.00029046     -7280.7804575768 -5.63E-02
   124 OT LS       0.97E-01    2.4                    -7280.8336535275
   125 OT CG       0.97E-01    5.6     0.00028199     -7280.8336541651 -5.32E-02
   126 OT LS       0.97E-01    2.4                    -7280.8835975164
   127 OT CG       0.97E-01    5.6     0.00027393     -7280.8835978420 -4.99E-02
   128 OT LS       0.97E-01    2.4                    -7280.9308492054
   129 OT CG       0.97E-01    5.6     0.00026613     -7280.9308491575 -4.73E-02
   130 OT LS       0.96E-01    2.4                    -7280.9750888891
   131 OT CG       0.96E-01    5.6     0.00025797     -7280.9750926187 -4.42E-02
   132 OT LS       0.98E-01    2.4                    -7281.0172155477
   133 OT CG       0.98E-01    5.6     0.00025094     -7281.0172244100 -4.21E-02
   134 OT LS       0.97E-01    2.4                    -7281.0568028154
   135 OT CG       0.97E-01    5.5     0.00024429     -7281.0568041092 -3.96E-02
   136 OT LS       0.97E-01    2.4                    -7281.0942416823
   137 OT CG       0.97E-01    5.5     0.00023827     -7281.0942420115 -3.74E-02
   138 OT LS       0.97E-01    2.4                    -7281.1299029785
   139 OT CG       0.97E-01    5.5     0.00023109     -7281.1299029351 -3.57E-02
   140 OT LS       0.98E-01    2.4                    -7281.1639724597
   141 OT CG       0.98E-01    5.6     0.00022606     -7281.1639819186 -3.41E-02
   142 OT LS       0.98E-01    2.4                    -7281.1962571985
   143 OT CG       0.98E-01    5.5     0.00022014     -7281.1962596719 -3.23E-02
   144 OT LS       0.97E-01    2.4                    -7281.2268711486
   145 OT CG       0.97E-01    5.5     0.00021600     -7281.2268711069 -3.06E-02
   146 OT LS       0.97E-01    2.4                    -7281.2561893747
   147 OT CG       0.97E-01    5.6     0.00020982     -7281.2561907083 -2.93E-02
   148 OT LS       0.99E-01    2.4                    -7281.2843106104
   149 OT CG       0.99E-01    5.5     0.00020440     -7281.2843187062 -2.81E-02
   150 OT LS       0.99E-01    2.4                    -7281.3111285587
   151 OT CG       0.99E-01    5.5     0.00019983     -7281.3111295259 -2.68E-02
   152 OT LS       0.98E-01    2.4                    -7281.3365090632
   153 OT CG       0.98E-01    5.5     0.00019583     -7281.3365118315 -2.54E-02
   154 OT LS       0.98E-01    2.4                    -7281.3608683420
   155 OT CG       0.98E-01    5.6     0.00019135     -7281.3608684576 -2.44E-02
   156 OT LS       0.98E-01    2.4                    -7281.3841891147
   157 OT CG       0.98E-01    5.6     0.00018729     -7281.3841892663 -2.33E-02
   158 OT LS       0.98E-01    2.4                    -7281.4064961166
   159 OT CG       0.98E-01    5.5     0.00018306     -7281.4064961149 -2.23E-02
   160 OT LS       0.99E-01    2.4                    -7281.4279767365
   161 OT CG       0.99E-01    5.5     0.00017875     -7281.4279779035 -2.15E-02
   162 OT LS       0.10E+00    2.4                    -7281.4486501595
   163 OT CG       0.10E+00    5.5     0.00017582     -7281.4486514288 -2.07E-02
   164 OT LS       0.99E-01    2.4                    -7281.4685265959
   165 OT CG       0.99E-01    5.6     0.00017190     -7281.4685273314 -1.99E-02
   166 OT LS       0.99E-01    2.4                    -7281.4875527893
   167 OT CG       0.99E-01    5.5     0.00016876     -7281.4875529460 -1.90E-02
   168 OT LS       0.99E-01    2.4                    -7281.5058423032
   169 OT CG       0.99E-01    5.5     0.00016597     -7281.5058424150 -1.83E-02
   170 OT LS       0.98E-01    2.4                    -7281.5234140291
   171 OT CG       0.98E-01    5.6     0.00016337     -7281.5234151573 -1.76E-02
   172 OT LS       0.99E-01    2.4                    -7281.5405040486
   173 OT CG       0.99E-01    5.5     0.00015969     -7281.5405042341 -1.71E-02
   174 OT LS       0.99E-01    2.4                    -7281.5569243558
   175 OT CG       0.99E-01    5.5     0.00015657     -7281.5569251369 -1.64E-02
   176 OT LS       0.10E+00    2.4                    -7281.5728467063
   177 OT CG       0.10E+00    5.5     0.00015396     -7281.5728478480 -1.59E-02
   178 OT LS       0.10E+00    2.4                    -7281.5881836855
   179 OT CG       0.10E+00    5.6     0.00015182     -7281.5881840648 -1.53E-02
   180 OT LS       0.99E-01    2.4                    -7281.6030561465
   181 OT CG       0.99E-01    5.5     0.00014907     -7281.6030562607 -1.49E-02
   182 OT LS       0.99E-01    2.4                    -7281.6173423255
   183 OT CG       0.99E-01    5.5     0.00014640     -7281.6173424246 -1.43E-02
   184 OT LS       0.10E+00    2.4                    -7281.6312035327
   185 OT CG       0.10E+00    5.5     0.00014419     -7281.6312040339 -1.39E-02
   186 OT LS       0.99E-01    2.4                    -7281.6446158712
   187 OT CG       0.99E-01    5.5     0.00014189     -7281.6446160390 -1.34E-02
   188 OT LS       0.99E-01    2.4                    -7281.6575934708
   189 OT CG       0.99E-01    5.5     0.00013929     -7281.6575934752 -1.30E-02
   190 OT LS       0.99E-01    2.4                    -7281.6700923089
   191 OT CG       0.99E-01    5.6     0.00013700     -7281.6700923076 -1.25E-02
   192 OT LS       0.99E-01    2.4                    -7281.6822025199
   193 OT CG       0.99E-01    5.6     0.00013489     -7281.6822025520 -1.21E-02
   194 OT LS       0.99E-01    2.4                    -7281.6939289945
   195 OT CG       0.99E-01    5.5     0.00013279     -7281.6939290266 -1.17E-02
   196 OT LS       0.99E-01    2.4                    -7281.7052943094
   197 OT CG       0.99E-01    5.5     0.00013056     -7281.7052943065 -1.14E-02
   198 OT LS       0.10E+00    2.4                    -7281.7162964705
   199 OT CG       0.10E+00    5.5     0.00012869     -7281.7162965058 -1.10E-02
   200 OT LS       0.10E+00    2.4                    -7281.7269994368
   201 OT CG       0.10E+00    5.6     0.00012676     -7281.7269994614 -1.07E-02
   202 OT LS       0.10E+00    2.4                    -7281.7374352609
   203 OT CG       0.10E+00    5.6     0.00012517     -7281.7374354781 -1.04E-02
   204 OT LS       0.10E+00    2.4                    -7281.7475860243
   205 OT CG       0.10E+00    5.5     0.00012304     -7281.7475861053 -1.02E-02
   206 OT LS       0.10E+00    2.4                    -7281.7574148782
   207 OT CG       0.10E+00    5.6     0.00012163     -7281.7574149352 -9.83E-03
   208 OT LS       0.10E+00    2.4                    -7281.7669783608
   209 OT CG       0.10E+00    5.6     0.00011961     -7281.7669785276 -9.56E-03
   210 OT LS       0.10E+00    2.4                    -7281.7762628128
   211 OT CG       0.10E+00    5.5     0.00011780     -7281.7762629395 -9.28E-03
   212 OT LS       0.10E+00    2.4                    -7281.7853227965
   213 OT CG       0.10E+00    5.6     0.00011622     -7281.7853231189 -9.06E-03
   214 OT LS       0.10E+00    2.4                    -7281.7940962993
   215 OT CG       0.10E+00    5.5     0.00011465     -7281.7940965417 -8.77E-03
   216 OT LS       0.10E+00    2.5                    -7281.8026317322
   217 OT CG       0.10E+00    5.6     0.00011306     -7281.8026317322 -8.54E-03
   218 OT LS       0.10E+00    2.4                    -7281.8109739591
   219 OT CG       0.10E+00    5.6     0.00011160     -7281.8109741791 -8.34E-03
   220 OT LS       0.10E+00    2.4                    -7281.8191320485
   221 OT CG       0.10E+00    5.5     0.00011011     -7281.8191321387 -8.16E-03
   222 OT LS       0.10E+00    2.4                    -7281.8270677657
   223 OT CG       0.10E+00    5.6     0.00010888     -7281.8270677720 -7.94E-03
   224 OT LS       0.10E+00    2.4                    -7281.8347989810
   225 OT CG       0.10E+00    5.5     0.00010732     -7281.8347990744 -7.73E-03
   226 OT LS       0.10E+00    2.4                    -7281.8423607523
   227 OT CG       0.10E+00    5.6     0.00010597     -7281.8423611269 -7.56E-03
   228 OT LS       0.10E+00    2.4                    -7281.8497185690
   229 OT CG       0.10E+00    5.6     0.00010466     -7281.8497186117 -7.36E-03
   230 OT LS       0.10E+00    2.5                    -7281.8568603874
   231 OT CG       0.10E+00    5.6     0.00010341     -7281.8568605705 -7.14E-03
   232 OT LS       0.10E+00    2.4                    -7281.8638161293
   233 OT CG       0.10E+00    5.5     0.00010187     -7281.8638161646 -6.96E-03
   234 OT LS       0.10E+00    2.4                    -7281.8706446484
   235 OT CG       0.10E+00    5.5     0.00010072     -7281.8706456218 -6.83E-03
   236 OT LS       0.10E+00    2.5                    -7281.8773186960
   237 OT CG       0.10E+00    5.5     0.00009959     -7281.8773186955 -6.67E-03
   238 OT LS       0.10E+00    2.4                    -7281.8838334656
   239 OT CG       0.10E+00    5.5     0.00009889     -7281.8838334935 -6.51E-03
   240 OT LS       0.10E+00    2.4                    -7281.8902015196
   241 OT CG       0.10E+00    5.5     0.00009749     -7281.8902019938 -6.37E-03
   242 OT LS       0.10E+00    2.4                    -7281.8964314477
   243 OT CG       0.10E+00    5.5     0.00009650     -7281.8964317576 -6.23E-03
   244 OT LS       0.10E+00    2.4                    -7281.9025000858
   245 OT CG       0.10E+00    5.5     0.00009511     -7281.9025002978 -6.07E-03
   246 OT LS       0.10E+00    2.5                    -7281.9084094287
   247 OT CG       0.10E+00    5.5     0.00009395     -7281.9084094512 -5.91E-03
   248 OT LS       0.10E+00    2.4                    -7281.9141589304
   249 OT CG       0.10E+00    5.5     0.00009259     -7281.9141589776 -5.75E-03
   250 OT LS       0.10E+00    2.4                    -7281.9197824396
   251 OT CG       0.10E+00    5.5     0.00009150     -7281.9197827548 -5.62E-03
   252 OT LS       0.10E+00    2.4                    -7281.9252677926
   253 OT CG       0.10E+00    5.6     0.00009041     -7281.9252677974 -5.49E-03
   254 OT LS       0.10E+00    2.4                    -7281.9306120578
   255 OT CG       0.10E+00    5.5     0.00008961     -7281.9306120925 -5.34E-03
   256 OT LS       0.10E+00    2.4                    -7281.9358564840
   257 OT CG       0.10E+00    5.5     0.00008847     -7281.9358564905 -5.24E-03
   258 OT LS       0.10E+00    2.4                    -7281.9409663425
   259 OT CG       0.10E+00    5.5     0.00008766     -7281.9409663424 -5.11E-03
   260 OT LS       0.10E+00    2.4                    -7281.9459738360
   261 OT CG       0.10E+00    5.6     0.00008650     -7281.9459738475 -5.01E-03
   262 OT LS       0.10E+00    2.4                    -7281.9508767045
   263 OT CG       0.10E+00    5.5     0.00008555     -7281.9508768193 -4.90E-03
   264 OT LS       0.10E+00    2.4                    -7281.9556798500
   265 OT CG       0.10E+00    5.6     0.00008461     -7281.9556798572 -4.80E-03
   266 OT LS       0.10E+00    2.4                    -7281.9603645045
   267 OT CG       0.10E+00    5.5     0.00008367     -7281.9603645313 -4.68E-03
   268 OT LS       0.10E+00    2.4                    -7281.9649560650
   269 OT CG       0.10E+00    5.6     0.00008289     -7281.9649560905 -4.59E-03
   270 OT LS       0.10E+00    2.5                    -7281.9694614436
   271 OT CG       0.10E+00    5.6     0.00008192     -7281.9694614466 -4.51E-03
   272 OT LS       0.10E+00    2.5                    -7281.9738760349
   273 OT CG       0.10E+00    5.6     0.00008123     -7281.9738760752 -4.41E-03
   274 OT LS       0.10E+00    2.5                    -7281.9782029373
   275 OT CG       0.10E+00    5.6     0.00008029     -7281.9782029658 -4.33E-03
   276 OT LS       0.10E+00    2.5                    -7281.9824436498
   277 OT CG       0.10E+00    5.5     0.00007965     -7281.9824436954 -4.24E-03
   278 OT LS       0.10E+00    2.5                    -7281.9866137187
   279 OT CG       0.10E+00    5.5     0.00007872     -7281.9866137262 -4.17E-03
   280 OT LS       0.10E+00    2.4                    -7281.9907087341
   281 OT CG       0.10E+00    5.5     0.00007818     -7281.9907088301 -4.10E-03
   282 OT LS       0.10E+00    2.4                    -7281.9947337144
   283 OT CG       0.10E+00    5.6     0.00007735     -7281.9947337448 -4.02E-03
   284 OT LS       0.10E+00    2.4                    -7281.9986857265
   285 OT CG       0.10E+00    5.5     0.00007673     -7281.9986857655 -3.95E-03
   286 OT LS       0.10E+00    2.4                    -7282.0025718976
   287 OT CG       0.10E+00    5.5     0.00007612     -7282.0025719041 -3.89E-03
   288 OT LS       0.10E+00    2.4                    -7282.0063808912
   289 OT CG       0.10E+00    5.5     0.00007541     -7282.0063809630 -3.81E-03
   290 OT LS       0.10E+00    2.4                    -7282.0101259863
   291 OT CG       0.10E+00    5.6     0.00007462     -7282.0101260053 -3.75E-03
   292 OT LS       0.10E+00    2.4                    -7282.0138027676
   293 OT CG       0.10E+00    5.5     0.00007397     -7282.0138027946 -3.68E-03
   294 OT LS       0.10E+00    2.4                    -7282.0174121794
   295 OT CG       0.10E+00    5.5     0.00007316     -7282.0174121881 -3.61E-03
   296 OT LS       0.10E+00    2.4                    -7282.0209558984
   297 OT CG       0.10E+00    5.6     0.00007263     -7282.0209559432 -3.54E-03
   298 OT LS       0.10E+00    2.4                    -7282.0244400130
   299 OT CG       0.10E+00    5.6     0.00007186     -7282.0244400248 -3.48E-03
   300 OT LS       0.10E+00    2.4                    -7282.0278543085
   301 OT CG       0.10E+00    5.5     0.00007144     -7282.0278543104 -3.41E-03
   302 OT LS       0.10E+00    2.4                    -7282.0312183416
   303 OT CG       0.10E+00    5.5     0.00007073     -7282.0312183875 -3.36E-03
   304 OT LS       0.10E+00    2.4                    -7282.0345114021
   305 OT CG       0.10E+00    5.6     0.00007025     -7282.0345114072 -3.29E-03
   306 OT LS       0.10E+00    2.4                    -7282.0377508979
   307 OT CG       0.10E+00    5.5     0.00006944     -7282.0377509162 -3.24E-03
   308 OT LS       0.10E+00    2.4                    -7282.0409246736
   309 OT CG       0.10E+00    5.5     0.00006888     -7282.0409246943 -3.17E-03
   310 OT LS       0.10E+00    2.4                    -7282.0440377119
   311 OT CG       0.10E+00    5.5     0.00006811     -7282.0440377549 -3.11E-03
   312 OT LS       0.10E+00    2.4                    -7282.0470899422
   313 OT CG       0.10E+00    5.5     0.00006758     -7282.0470899667 -3.05E-03
   314 OT LS       0.10E+00    2.4                    -7282.0500943117
   315 OT CG       0.10E+00    5.5     0.00006683     -7282.0500943123 -3.00E-03
   316 OT LS       0.10E+00    2.4                    -7282.0530311442
   317 OT CG       0.10E+00    5.5     0.00006641     -7282.0530311450 -2.94E-03
   318 OT LS       0.10E+00    2.4                    -7282.0559381358
   319 OT CG       0.10E+00    5.5     0.00006572     -7282.0559381446 -2.91E-03
   320 OT LS       0.10E+00    2.4                    -7282.0587908808
   321 OT CG       0.10E+00    5.6     0.00006538     -7282.0587908926 -2.85E-03
   322 OT LS       0.10E+00    2.4                    -7282.0616062292
   323 OT CG       0.10E+00    5.5     0.00006462     -7282.0616062421 -2.82E-03
   324 OT LS       0.10E+00    2.4                    -7282.0643544747
   325 OT CG       0.10E+00    5.5     0.00006425     -7282.0643544767 -2.75E-03
   326 OT LS       0.10E+00    2.4                    -7282.0670561402
   327 OT CG       0.10E+00    5.5     0.00006342     -7282.0670562426 -2.70E-03
   328 OT LS       0.10E+00    2.4                    -7282.0697011098
   329 OT CG       0.10E+00    5.5     0.00006277     -7282.0697011722 -2.64E-03
   330 OT LS       0.10E+00    2.4                    -7282.0722991430
   331 OT CG       0.10E+00    5.5     0.00006214     -7282.0722991688 -2.60E-03
   332 OT LS       0.10E+00    2.4                    -7282.0748276560
   333 OT CG       0.10E+00    5.5     0.00006157     -7282.0748277815 -2.53E-03
   334 OT LS       0.10E+00    2.4                    -7282.0773251155
   335 OT CG       0.10E+00    5.6     0.00006103     -7282.0773251864 -2.50E-03
   336 OT LS       0.10E+00    2.4                    -7282.0797768283
   337 OT CG       0.10E+00    5.5     0.00006052     -7282.0797768284 -2.45E-03
   338 OT LS       0.10E+00    2.4                    -7282.0821896266
   339 OT CG       0.10E+00    5.5     0.00005994     -7282.0821896287 -2.41E-03
   340 OT LS       0.10E+00    2.4                    -7282.0845487089
   341 OT CG       0.10E+00    5.5     0.00005945     -7282.0845487364 -2.36E-03
   342 OT LS       0.10E+00    2.4                    -7282.0868801657
   343 OT CG       0.10E+00    5.6     0.00005881     -7282.0868802062 -2.33E-03
   344 OT LS       0.10E+00    2.4                    -7282.0891626409
   345 OT CG       0.10E+00    5.5     0.00005830     -7282.0891626411 -2.28E-03
   346 OT LS       0.10E+00    2.4                    -7282.0914119152
   347 OT CG       0.10E+00    5.5     0.00005775     -7282.0914119415 -2.25E-03
   348 OT LS       0.10E+00    2.4                    -7282.0936066833
   349 OT CG       0.10E+00    5.6     0.00005726     -7282.0936067639 -2.19E-03
   350 OT LS       0.10E+00    2.4                    -7282.0957743793
   351 OT CG       0.10E+00    5.6     0.00005678     -7282.0957744162 -2.17E-03
   352 OT LS       0.10E+00    2.4                    -7282.0979009823
   353 OT CG       0.10E+00    5.5     0.00005627     -7282.0979009903 -2.13E-03
   354 OT LS       0.10E+00    2.4                    -7282.0999990368
   355 OT CG       0.10E+00    5.6     0.00005583     -7282.0999990852 -2.10E-03
   356 OT LS       0.10E+00    2.4                    -7282.1020530969
   357 OT CG       0.10E+00    5.6     0.00005538     -7282.1020531687 -2.05E-03
   358 OT LS       0.10E+00    2.4                    -7282.1040814564
   359 OT CG       0.10E+00    5.6     0.00005496     -7282.1040814777 -2.03E-03
   360 OT LS       0.10E+00    2.4                    -7282.1060728663
   361 OT CG       0.10E+00    5.5     0.00005449     -7282.1060728798 -1.99E-03
   362 OT LS       0.10E+00    2.4                    -7282.1080291587
   363 OT CG       0.10E+00    5.6     0.00005402     -7282.1080291589 -1.96E-03
   364 OT LS       0.10E+00    2.4                    -7282.1099477052
   365 OT CG       0.10E+00    5.5     0.00005347     -7282.1099477195 -1.92E-03
   366 OT LS       0.10E+00    2.4                    -7282.1118306653
   367 OT CG       0.10E+00    5.5     0.00005302     -7282.1118306700 -1.88E-03
   368 OT LS       0.10E+00    2.4                    -7282.1136785545
   369 OT CG       0.10E+00    5.6     0.00005254     -7282.1136785600 -1.85E-03
   370 OT LS       0.10E+00    4.4                    -7282.1154994730
   371 OT CG       0.10E+00    5.5     0.00005203     -7282.1154995000 -1.82E-03
   372 OT LS       0.10E+00    2.4                    -7282.1172832926
   373 OT CG       0.10E+00    5.5     0.00005171     -7282.1172832965 -1.78E-03
   374 OT LS       0.10E+00    2.4                    -7282.1190370075
   375 OT CG       0.10E+00    5.5     0.00005140     -7282.1190370513 -1.75E-03
   376 OT LS       0.10E+00    2.4                    -7282.1207655621
   377 OT CG       0.10E+00    5.5     0.00005092     -7282.1207655704 -1.73E-03
   378 OT LS       0.10E+00    2.4                    -7282.1224680542
   379 OT CG       0.10E+00    5.5     0.00005042     -7282.1224680798 -1.70E-03
   380 OT LS       0.10E+00    2.4                    -7282.1241428290
   381 OT CG       0.10E+00    5.5     0.00004996     -7282.1241428415 -1.67E-03
   382 OT LS       0.10E+00    2.4                    -7282.1257881504
   383 OT CG       0.10E+00    5.5     0.00004962     -7282.1257881509 -1.65E-03
   384 OT LS       0.10E+00    2.4                    -7282.1274007632
   385 OT CG       0.10E+00    5.5     0.00004912     -7282.1274008270 -1.61E-03
   386 OT LS       0.10E+00    2.4                    -7282.1289854019
   387 OT CG       0.10E+00    5.5     0.00004878     -7282.1289854139 -1.58E-03
   388 OT LS       0.10E+00    2.5                    -7282.1305459855
   389 OT CG       0.10E+00    5.5     0.00004842     -7282.1305459904 -1.56E-03
   390 OT LS       0.10E+00    2.4                    -7282.1320859698
   391 OT CG       0.10E+00    5.5     0.00004804     -7282.1320859726 -1.54E-03
   392 OT LS       0.10E+00    2.4                    -7282.1336066407
   393 OT CG       0.10E+00    5.5     0.00004766     -7282.1336066607 -1.52E-03
   394 OT LS       0.10E+00    2.4                    -7282.1351053291
   395 OT CG       0.10E+00    5.5     0.00004729     -7282.1351053323 -1.50E-03
   396 OT LS       0.10E+00    2.4                    -7282.1365807005
   397 OT CG       0.10E+00    5.5     0.00004704     -7282.1365807013 -1.48E-03
   398 OT LS       0.10E+00    2.4                    -7282.1380317654
   399 OT CG       0.10E+00    5.5     0.00004655     -7282.1380318164 -1.45E-03
   400 OT LS       0.10E+00    2.4                    -7282.1394620250
   401 OT CG       0.10E+00    5.5     0.00004629     -7282.1394620944 -1.43E-03
   402 OT LS       0.10E+00    2.4                    -7282.1408676102
   403 OT CG       0.10E+00    5.6     0.00004584     -7282.1408676674 -1.41E-03
   404 OT LS       0.10E+00    2.4                    -7282.1422521826
   405 OT CG       0.10E+00    5.5     0.00004551     -7282.1422522026 -1.38E-03
   406 OT LS       0.10E+00    2.4                    -7282.1436204465
   407 OT CG       0.10E+00    5.5     0.00004514     -7282.1436204573 -1.37E-03
   408 OT LS       0.10E+00    2.4                    -7282.1449706864
   409 OT CG       0.10E+00    5.5     0.00004491     -7282.1449707026 -1.35E-03
   410 OT LS       0.10E+00    2.4                    -7282.1462950184
   411 OT CG       0.10E+00    5.5     0.00004461     -7282.1462951279 -1.32E-03
   412 OT LS       0.10E+00    2.4                    -7282.1476051834
   413 OT CG       0.10E+00    5.5     0.00004433     -7282.1476051875 -1.31E-03
   414 OT LS       0.10E+00    2.4                    -7282.1488988363
   415 OT CG       0.10E+00    5.6     0.00004397     -7282.1488988362 -1.29E-03
   416 OT LS       0.10E+00    2.4                    -7282.1501733841
   417 OT CG       0.10E+00    5.5     0.00004369     -7282.1501733877 -1.27E-03
   418 OT LS       0.10E+00    2.4                    -7282.1514328900
   419 OT CG       0.10E+00    5.6     0.00004327     -7282.1514328909 -1.26E-03
   420 OT LS       0.10E+00    2.4                    -7282.1526714877
   421 OT CG       0.10E+00    5.5     0.00004304     -7282.1526714921 -1.24E-03
   422 OT LS       0.10E+00    2.4                    -7282.1538919546
   423 OT CG       0.10E+00    5.6     0.00004270     -7282.1538919762 -1.22E-03
   424 OT LS       0.10E+00    2.4                    -7282.1550925611
   425 OT CG       0.10E+00    5.6     0.00004245     -7282.1550925612 -1.20E-03
   426 OT LS       0.10E+00    2.4                    -7282.1562738902
   427 OT CG       0.10E+00    5.5     0.00004212     -7282.1562739141 -1.18E-03
   428 OT LS       0.10E+00    2.4                    -7282.1574404890
   429 OT CG       0.10E+00    5.6     0.00004193     -7282.1574404971 -1.17E-03
   430 OT LS       0.10E+00    2.4                    -7282.1585900307
   431 OT CG       0.10E+00    5.6     0.00004151     -7282.1585900709 -1.15E-03
   432 OT LS       0.10E+00    2.4                    -7282.1597288931
   433 OT CG       0.10E+00    5.6     0.00004128     -7282.1597290363 -1.14E-03
   434 OT LS       0.10E+00    2.4                    -7282.1608501552
   435 OT CG       0.10E+00    5.6     0.00004099     -7282.1608501795 -1.12E-03
   436 OT LS       0.10E+00    2.4                    -7282.1619505855
   437 OT CG       0.10E+00    5.6     0.00004084     -7282.1619506150 -1.10E-03
   438 OT LS       0.10E+00    2.4                    -7282.1630367112
   439 OT CG       0.10E+00    5.6     0.00004046     -7282.1630367426 -1.09E-03
   440 OT LS       0.10E+00    2.4                    -7282.1641083541
   441 OT CG       0.10E+00    5.6     0.00004018     -7282.1641083843 -1.07E-03
   442 OT LS       0.10E+00    2.4                    -7282.1651705164
   443 OT CG       0.10E+00    5.6     0.00003992     -7282.1651705445 -1.06E-03
   444 OT LS       0.10E+00    2.4                    -7282.1662137589
   445 OT CG       0.10E+00    5.5     0.00003975     -7282.1662137908 -1.04E-03
   446 OT LS       0.10E+00    2.4                    -7282.1672470550
   447 OT CG       0.10E+00    5.5     0.00003945     -7282.1672470558 -1.03E-03
   448 OT LS       0.10E+00    2.4                    -7282.1682673674
   449 OT CG       0.10E+00    5.6     0.00003922     -7282.1682673767 -1.02E-03
   450 OT LS       0.10E+00    2.4                    -7282.1692775589
   451 OT CG       0.10E+00    5.6     0.00003891     -7282.1692775614 -1.01E-03
   452 OT LS       0.10E+00    2.4                    -7282.1702732040
   453 OT CG       0.10E+00    5.5     0.00003863     -7282.1702732049 -9.96E-04
   454 OT LS       0.10E+00    2.4                    -7282.1712559221
   455 OT CG       0.10E+00    5.6     0.00003845     -7282.1712559237 -9.83E-04
   456 OT LS       0.10E+00    2.5                    -7282.1722213347
   457 OT CG       0.10E+00    5.5     0.00003818     -7282.1722214015 -9.65E-04
   458 OT LS       0.10E+00    2.4                    -7282.1731748618
   459 OT CG       0.10E+00    5.5     0.00003790     -7282.1731748652 -9.53E-04
   460 OT LS       0.10E+00    2.4                    -7282.1741173968
   461 OT CG       0.10E+00    5.5     0.00003759     -7282.1741174020 -9.43E-04
   462 OT LS       0.10E+00    2.4                    -7282.1750501375
   463 OT CG       0.10E+00    5.6     0.00003733     -7282.1750501741 -9.33E-04
   464 OT LS       0.10E+00    2.4                    -7282.1759680577
   465 OT CG       0.10E+00    5.6     0.00003707     -7282.1759680609 -9.18E-04
   466 OT LS       0.10E+00    2.4                    -7282.1768719025
   467 OT CG       0.10E+00    5.6     0.00003685     -7282.1768719050 -9.04E-04
   468 OT LS       0.10E+00    2.4                    -7282.1777626218
   469 OT CG       0.10E+00    5.6     0.00003660     -7282.1777626306 -8.91E-04
   470 OT LS       0.10E+00    2.4                    -7282.1786412069
   471 OT CG       0.10E+00    5.6     0.00003641     -7282.1786412068 -8.79E-04
   472 OT LS       0.10E+00    2.4                    -7282.1795086395
   473 OT CG       0.10E+00    5.6     0.00003611     -7282.1795086435 -8.67E-04
   474 OT LS       0.10E+00    2.4                    -7282.1803681170
   475 OT CG       0.10E+00    5.6     0.00003591     -7282.1803681646 -8.60E-04
   476 OT LS       0.10E+00    2.4                    -7282.1812179175
   477 OT CG       0.10E+00    5.6     0.00003567     -7282.1812179175 -8.50E-04
   478 OT LS       0.10E+00    2.4                    -7282.1820546831
   479 OT CG       0.10E+00    5.6     0.00003544     -7282.1820546871 -8.37E-04
   480 OT LS       0.10E+00    2.4                    -7282.1828791022
   481 OT CG       0.10E+00    5.6     0.00003525     -7282.1828791059 -8.24E-04
   482 OT LS       0.10E+00    2.4                    -7282.1836914172
   483 OT CG       0.10E+00    5.6     0.00003501     -7282.1836914292 -8.12E-04
   484 OT LS       0.10E+00    2.4                    -7282.1844910430
   485 OT CG       0.10E+00    5.6     0.00003474     -7282.1844910461 -8.00E-04
   486 OT LS       0.10E+00    2.4                    -7282.1852794534
   487 OT CG       0.10E+00    5.6     0.00003452     -7282.1852794538 -7.88E-04
   488 OT LS       0.10E+00    2.4                    -7282.1860589975
   489 OT CG       0.10E+00    5.6     0.00003428     -7282.1860589998 -7.80E-04
   490 OT LS       0.10E+00    2.4                    -7282.1868257493
   491 OT CG       0.10E+00    5.6     0.00003398     -7282.1868257540 -7.67E-04
   492 OT LS       0.10E+00    2.4                    -7282.1875865283
   493 OT CG       0.10E+00    5.6     0.00003377     -7282.1875865980 -7.61E-04
   494 OT LS       0.10E+00    2.4                    -7282.1883347578
   495 OT CG       0.10E+00    5.6     0.00003361     -7282.1883347718 -7.48E-04
   496 OT LS       0.10E+00    2.4                    -7282.1890723107
   497 OT CG       0.10E+00    5.6     0.00003338     -7282.1890723281 -7.38E-04
   498 OT LS       0.10E+00    2.4                    -7282.1897993198
   499 OT CG       0.10E+00    5.5     0.00003322     -7282.1897993200 -7.27E-04
   500 OT LS       0.10E+00    2.4                    -7282.1905193743

  Leaving inner SCF loop after reaching   500 steps.


  Electronic density on regular grids:      -3237.9999971260        0.0000028740
  Core density on regular grids:             3237.9999997998       -0.0000002002
  Total charge density on r-space grids:        0.0000026738
  Total charge density g-space grids:           0.0000026738

  Overlap energy of the core charge distribution:               0.00001661710336
  Self energy of the core charge distribution:             -18729.53967206396192
  Core Hamiltonian energy:                                   5313.97365885571344
  Hartree energy:                                            7835.99708990475847
  Exchange-correlation energy:                              -1700.51134485563489
  Dispersion energy:                                           -2.11026783223431

  Total energy:                                             -7282.19051937425411

  outer SCF iter =    1 RMS gradient =   0.33E-04 energy =      -7282.1905193743

  ----------------------------------- OT ---------------------------------------
  Minimizer      : CG                  : conjugate gradient
  Preconditioner : FULL_ALL            : diagonalization, state selective
  Precond_solver : DEFAULT
  Line search    : 2PNT                : 2 energies, one gradient
  stepsize       :    0.15000000                  energy_gap     :    0.00100000
  eps_taylor     :   0.10000E-15                  max_taylor     :             4
  ----------------------------------- OT ---------------------------------------

  Step     Update method      Time    Convergence         Total energy    Change
  ------------------------------------------------------------------------------
     1 OT CG       0.15E+00   24.9     0.00024479     -7282.1905193742 -7.20E-04
     2 OT LS       0.25E+00    2.2                    -7282.2720772555
     3 OT CG       0.25E+00    5.4     0.00000960     -7282.2874301515 -9.69E-02
     4 OT LS       0.84E-01    2.2                    -7282.2872833797
     5 OT CG       0.84E-01    5.3     0.00000265     -7282.2874799751 -4.98E-05
     6 OT LS       0.78E-01    2.1                    -7282.2874835301
     7 OT CG       0.78E-01    5.2     0.00000132     -7282.2874835457 -3.57E-06
     8 OT LS       0.91E-01    2.1                    -7282.2874845496
     9 OT CG       0.91E-01    5.2     0.00000046     -7282.2874845703 -1.02E-06

  *** SCF run converged in     9 steps ***


  Electronic density on regular grids:      -3237.9999971262        0.0000028738
  Core density on regular grids:             3237.9999997998       -0.0000002002
  Total charge density on r-space grids:        0.0000026736
  Total charge density g-space grids:           0.0000026736

  Overlap energy of the core charge distribution:               0.00001661710336
  Self energy of the core charge distribution:             -18729.53967206396192
  Core Hamiltonian energy:                                   5313.73967793884549
  Hartree energy:                                            7836.12129281128728
  Exchange-correlation energy:                              -1700.49853204130250
  Dispersion energy:                                           -2.11026783223431

  Total energy:                                             -7282.28748457026086

  outer SCF iter =    2 RMS gradient =   0.46E-06 energy =      -7282.2874845703
  outer SCF loop converged in   2 iterations or  509 steps


 ENERGY| Total FORCE_EVAL ( QS ) energy [a.u.]:            -7282.287484703725568

 ATOMIC FORCES in [a.u.]

 # Atom   Kind   Element          X              Y              Z
      1      1      Ti          0.00000000     0.00000000     0.00000000
      2      2      Si          0.00000000     0.00000000     0.00000000
      3      2      Si          0.00000000     0.00000000     0.00000000
      4      2      Si          0.00000000     0.00000000     0.00000000
      5      2      Si          0.00000000     0.00000000     0.00000000
      6      2      Si          0.00000000     0.00000000     0.00000000
      7      2      Si          0.00000000     0.00000000     0.00000000
      8      2      Si          0.00000000     0.00000000     0.00000000
      9      2      Si          0.00000000     0.00000000     0.00000000
     10      2      Si          0.00000000     0.00000000     0.00000000
     11      2      Si          0.00000000     0.00000000     0.00000000
     12      2      Si          0.00000000     0.00000000     0.00000000
     13      2      Si          0.00000000     0.00000000     0.00000000
     14      2      Si          0.00000000     0.00000000     0.00000000
     15      2      Si          0.00000000     0.00000000     0.00000000
     16      2      Si          0.00000000     0.00000000     0.00000000
     17      2      Si          0.00000000     0.00000000     0.00000000
     18      2      Si          0.00000000     0.00000000     0.00000000
     19      2      Si          0.00000000     0.00000000     0.00000000
     20      2      Si          0.00000000     0.00000000     0.00000000
     21      2      Si          0.00000000     0.00000000     0.00000000
     22      2      Si          0.00000000     0.00000000     0.00000000
     23      2      Si          0.00000000     0.00000000     0.00000000
     24      2      Si          0.00000000     0.00000000     0.00000000
     25      2      Si          0.00000000     0.00000000     0.00000000
     26      2      Si          0.00000000     0.00000000     0.00000000
     27      2      Si          0.00000000     0.00000000     0.00000000
     28      2      Si          0.00000000     0.00000000     0.00000000
     29      2      Si          0.00000000     0.00000000     0.00000000
     30      2      Si          0.00000000     0.00000000     0.00000000
     31      2      Si          0.00000000     0.00000000     0.00000000
     32      2      Si          0.00000000     0.00000000     0.00000000
     33      2      Si          0.00000000     0.00000000     0.00000000
     34      2      Si          0.00000000     0.00000000     0.00000000
     35      2      Si          0.00000000     0.00000000     0.00000000
     36      2      Si          0.00000000     0.00000000     0.00000000
     37      2      Si          0.00000000     0.00000000     0.00000000
     38      2      Si          0.00000000     0.00000000     0.00000000
     39      2      Si          0.00000000     0.00000000     0.00000000
     40      2      Si          0.00000000     0.00000000     0.00000000
     41      2      Si          0.00000000     0.00000000     0.00000000
     42      2      Si          0.00000000     0.00000000     0.00000000
     43      2      Si          0.00000000     0.00000000     0.00000000
     44      2      Si          0.00000000     0.00000000     0.00000000
     45      2      Si          0.00000000     0.00000000     0.00000000
     46      2      Si          0.00000000     0.00000000     0.00000000
     47      2      Si          0.00000000     0.00000000     0.00000000
     48      2      Si          0.00000000     0.00000000     0.00000000
     49      2      Si          0.00000000     0.00000000     0.00000000
     50      2      Si          0.00000000     0.00000000     0.00000000
     51      2      Si          0.00000000     0.00000000     0.00000000
     52      2      Si          0.00000000     0.00000000     0.00000000
     53      2      Si          0.00000000     0.00000000     0.00000000
     54      2      Si          0.00000000     0.00000000     0.00000000
     55      2      Si          0.00000000     0.00000000     0.00000000
     56      2      Si          0.00000000     0.00000000     0.00000000
     57      2      Si          0.00000000     0.00000000     0.00000000
     58      2      Si          0.00000000     0.00000000     0.00000000
     59      2      Si          0.00000000     0.00000000     0.00000000
     60      2      Si          0.00000000     0.00000000     0.00000000
     61      2      Si          0.00000000     0.00000000     0.00000000
     62      2      Si          0.00000000     0.00000000     0.00000000
     63      2      Si          0.00000000     0.00000000     0.00000000
     64      2      Si          0.00000000     0.00000000     0.00000000
     65      2      Si          0.00000000     0.00000000     0.00000000
     66      2      Si          0.00000000     0.00000000     0.00000000
     67      2      Si          0.00000000     0.00000000     0.00000000
     68      2      Si          0.00000000     0.00000000     0.00000000
     69      2      Si          0.00000000     0.00000000     0.00000000
     70      2      Si          0.00000000     0.00000000     0.00000000
     71      2      Si          0.00000000     0.00000000     0.00000000
     72      2      Si          0.00000000     0.00000000     0.00000000
     73      2      Si          0.00000000     0.00000000     0.00000000
     74      2      Si          0.00000000     0.00000000     0.00000000
     75      2      Si          0.00000000     0.00000000     0.00000000
     76      2      Si          0.00000000     0.00000000     0.00000000
     77      2      Si          0.00000000     0.00000000     0.00000000
     78      2      Si          0.00000000     0.00000000     0.00000000
     79      2      Si          0.00000000     0.00000000     0.00000000
     80      2      Si          0.00000000     0.00000000     0.00000000
     81      2      Si          0.00000000     0.00000000     0.00000000
     82      2      Si          0.00000000     0.00000000     0.00000000
     83      2      Si          0.00000000     0.00000000     0.00000000
     84      2      Si          0.00000000     0.00000000     0.00000000
     85      2      Si          0.00000000     0.00000000     0.00000000
     86      2      Si          0.00000000     0.00000000     0.00000000
     87      2      Si          0.00000000     0.00000000     0.00000000
     88      2      Si          0.00000000     0.00000000     0.00000000
     89      2      Si          0.00000000     0.00000000     0.00000000
     90      2      Si          0.00000000     0.00000000     0.00000000
     91      2      Si          0.00000000     0.00000000     0.00000000
     92      2      Si          0.00000000     0.00000000     0.00000000
     93      2      Si          0.00000000     0.00000000     0.00000000
     94      2      Si          0.00000000     0.00000000     0.00000000
     95      2      Si          0.00000000     0.00000000     0.00000000
     96      2      Si          0.00000000     0.00000000     0.00000000
     97      2      Si          0.00000000     0.00000000     0.00000000
     98      2      Si          0.00000000     0.00000000     0.00000000
     99      2      Si          0.00000000     0.00000000     0.00000000
    100      2      Si          0.00000000     0.00000000     0.00000000
    101      2      Si          0.00000000     0.00000000     0.00000000
    102      2      Si          0.00000000     0.00000000     0.00000000
    103      2      Si          0.00000000     0.00000000     0.00000000
    104      2      Si          0.00000000     0.00000000     0.00000000
    105      2      Si          0.00000000     0.00000000     0.00000000
    106      2      Si          0.00000000     0.00000000     0.00000000
    107      2      Si          0.00000000     0.00000000     0.00000000
    108      2      Si          0.00000000     0.00000000     0.00000000
    109      2      Si          0.00000000     0.00000000     0.00000000
    110      2      Si          0.00000000     0.00000000     0.00000000
    111      2      Si          0.00000000     0.00000000     0.00000000
    112      2      Si          0.00000000     0.00000000     0.00000000
    113      2      Si          0.00000000     0.00000000     0.00000000
    114      2      Si          0.00000000     0.00000000     0.00000000
    115      2      Si          0.00000000     0.00000000     0.00000000
    116      2      Si          0.00000000     0.00000000     0.00000000
    117      2      Si          0.00000000     0.00000000     0.00000000
    118      2      Si          0.00000000     0.00000000     0.00000000
    119      2      Si          0.00000000     0.00000000     0.00000000
    120      2      Si          0.00000000     0.00000000     0.00000000
    121      2      Si          0.00000000     0.00000000     0.00000000
    122      2      Si          0.00000000     0.00000000     0.00000000
    123      2      Si          0.00000000     0.00000000     0.00000000
    124      2      Si          0.00000000     0.00000000     0.00000000
    125      2      Si          0.00000000     0.00000000     0.00000000
    126      2      Si          0.00000000     0.00000000     0.00000000
    127      2      Si          0.00000000     0.00000000     0.00000000
    128      2      Si          0.00000000     0.00000000     0.00000000
    129      2      Si          0.00000000     0.00000000     0.00000000
    130      2      Si          0.00000000     0.00000000     0.00000000
    131      2      Si          0.00000000     0.00000000     0.00000000
    132      2      Si          0.00000000     0.00000000     0.00000000
    133      2      Si          0.00000000     0.00000000     0.00000000
    134      2      Si          0.00000000     0.00000000     0.00000000
    135      2      Si          0.00000000     0.00000000     0.00000000
    136      2      Si          0.00000000     0.00000000     0.00000000
    137      2      Si          0.00000000     0.00000000     0.00000000
    138      2      Si          0.00000000     0.00000000     0.00000000
    139      2      Si          0.00000000     0.00000000     0.00000000
    140      2      Si          0.00000000     0.00000000     0.00000000
    141      2      Si          0.00000000     0.00000000     0.00000000
    142      2      Si          0.00000000     0.00000000     0.00000000
    143      2      Si          0.00000000     0.00000000     0.00000000
    144      2      Si          0.00000000     0.00000000     0.00000000
    145      2      Si          0.00000000     0.00000000     0.00000000
    146      2      Si          0.00000000     0.00000000     0.00000000
    147      2      Si          0.00000000     0.00000000     0.00000000
    148      2      Si          0.00000000     0.00000000     0.00000000
    149      2      Si          0.00000000     0.00000000     0.00000000
    150      2      Si          0.00000000     0.00000000     0.00000000
    151      2      Si          0.00000000     0.00000000     0.00000000
    152      2      Si          0.00000000     0.00000000     0.00000000
    153      2      Si          0.00000000     0.00000000     0.00000000
    154      2      Si          0.00000000     0.00000000     0.00000000
    155      2      Si          0.00000000     0.00000000     0.00000000
    156      2      Si          0.00000000     0.00000000     0.00000000
    157      2      Si          0.00000000     0.00000000     0.00000000
    158      2      Si          0.00000000     0.00000000     0.00000000
    159      2      Si          0.00000000     0.00000000     0.00000000
    160      2      Si          0.00000000     0.00000000     0.00000000
    161      2      Si          0.00000000     0.00000000     0.00000000
    162      2      Si          0.00000000     0.00000000     0.00000000
    163      2      Si          0.00000000     0.00000000     0.00000000
    164      2      Si          0.00000000     0.00000000     0.00000000
    165      2      Si          0.00000000     0.00000000     0.00000000
    166      2      Si          0.00000000     0.00000000     0.00000000
    167      2      Si          0.00000000     0.00000000     0.00000000
    168      2      Si          0.00000000     0.00000000     0.00000000
    169      2      Si          0.00000000     0.00000000     0.00000000
    170      2      Si          0.00000000     0.00000000     0.00000000
    171      2      Si          0.00000000     0.00000000     0.00000000
    172      2      Si          0.00000000     0.00000000     0.00000000
    173      2      Si          0.00000000     0.00000000     0.00000000
    174      2      Si          0.00000000     0.00000000     0.00000000
    175      2      Si          0.00000000     0.00000000     0.00000000
    176      2      Si          0.00000000     0.00000000     0.00000000
    177      2      Si          0.00000000     0.00000000     0.00000000
    178      2      Si          0.00000000     0.00000000     0.00000000
    179      2      Si          0.00000000     0.00000000     0.00000000
    180      2      Si          0.00000000     0.00000000     0.00000000
    181      2      Si          0.00000000     0.00000000     0.00000000
    182      2      Si          0.00000000     0.00000000     0.00000000
    183      2      Si          0.00000000     0.00000000     0.00000000
    184      2      Si          0.00000000     0.00000000     0.00000000
    185      2      Si          0.00000000     0.00000000     0.00000000
    186      2      Si          0.00000000     0.00000000     0.00000000
    187      2      Si          0.00000000     0.00000000     0.00000000
    188      2      Si          0.00000000     0.00000000     0.00000000
    189      2      Si          0.00000000     0.00000000     0.00000000
    190      2      Si          0.00000000     0.00000000     0.00000000
    191      2      Si          0.00000000     0.00000000     0.00000000
    192      3      O           0.00000000     0.00000000     0.00000000
    193      3      O           0.00000000     0.00000000     0.00000000
    194      3      O           0.00000000     0.00000000     0.00000000
    195      3      O           0.00000000     0.00000000     0.00000000
    196      3      O           0.00000000     0.00000000     0.00000000
    197      3      O           0.00000000     0.00000000     0.00000000
    198      3      O           0.00000000     0.00000000     0.00000000
    199      3      O           0.00000000     0.00000000     0.00000000
    200      3      O           0.00000000     0.00000000     0.00000000
    201      3      O           0.00000000     0.00000000     0.00000000
    202      3      O           0.00000000     0.00000000     0.00000000
    203      3      O           0.00000000     0.00000000     0.00000000
    204      3      O           0.00000000     0.00000000     0.00000000
    205      3      O           0.00000000     0.00000000     0.00000000
    206      3      O           0.00000000     0.00000000     0.00000000
    207      3      O           0.00000000     0.00000000     0.00000000
    208      3      O           0.00000000     0.00000000     0.00000000
    209      3      O           0.00000000     0.00000000     0.00000000
    210      3      O           0.00000000     0.00000000     0.00000000
    211      3      O           0.00000000     0.00000000     0.00000000
    212      3      O           0.00000000     0.00000000     0.00000000
    213      3      O           0.00000000     0.00000000     0.00000000
    214      3      O           0.00000000     0.00000000     0.00000000
    215      3      O           0.00000000     0.00000000     0.00000000
    216      3      O           0.00000000     0.00000000     0.00000000
    217      3      O           0.00000000     0.00000000     0.00000000
    218      3      O           0.00000000     0.00000000     0.00000000
    219      3      O           0.00000000     0.00000000     0.00000000
    220      3      O           0.00000000     0.00000000     0.00000000
    221      3      O           0.00000000     0.00000000     0.00000000
    222      3      O           0.00000000     0.00000000     0.00000000
    223      3      O           0.00000000     0.00000000     0.00000000
    224      3      O           0.00000000     0.00000000     0.00000000
    225      3      O           0.00000000     0.00000000     0.00000000
    226      3      O           0.00000000     0.00000000     0.00000000
    227      3      O           0.00000000     0.00000000     0.00000000
    228      3      O           0.00000000     0.00000000     0.00000000
    229      3      O           0.00000000     0.00000000     0.00000000
    230      3      O           0.00000000     0.00000000     0.00000000
    231      3      O           0.00000000     0.00000000     0.00000000
    232      3      O           0.00000000     0.00000000     0.00000000
    233      3      O           0.00000000     0.00000000     0.00000000
    234      3      O           0.00000000     0.00000000     0.00000000
    235      3      O           0.00000000     0.00000000     0.00000000
    236      3      O           0.00000000     0.00000000     0.00000000
    237      3      O           0.00000000     0.00000000     0.00000000
    238      3      O           0.00000000     0.00000000     0.00000000
    239      3      O           0.00000000     0.00000000     0.00000000
    240      3      O           0.00000000     0.00000000     0.00000000
    241      3      O           0.00000000     0.00000000     0.00000000
    242      3      O           0.00000000     0.00000000     0.00000000
    243      3      O           0.00000000     0.00000000     0.00000000
    244      3      O           0.00000000     0.00000000     0.00000000
    245      3      O           0.00000000     0.00000000     0.00000000
    246      3      O           0.00000000     0.00000000     0.00000000
    247      3      O           0.00000000     0.00000000     0.00000000
    248      3      O           0.00000000     0.00000000     0.00000000
    249      3      O           0.00000000     0.00000000     0.00000000
    250      3      O           0.00000000     0.00000000     0.00000000
    251      3      O           0.00000000     0.00000000     0.00000000
    252      3      O           0.00000000     0.00000000     0.00000000
    253      3      O           0.00000000     0.00000000     0.00000000
    254      3      O           0.00000000     0.00000000     0.00000000
    255      3      O           0.00000000     0.00000000     0.00000000
    256      3      O           0.00000000     0.00000000     0.00000000
    257      3      O           0.00000000     0.00000000     0.00000000
    258      3      O           0.00000000     0.00000000     0.00000000
    259      3      O           0.00000000     0.00000000     0.00000000
    260      3      O           0.00000000     0.00000000     0.00000000
    261      3      O           0.00000000     0.00000000     0.00000000
    262      3      O           0.00000000     0.00000000     0.00000000
    263      3      O           0.00000000     0.00000000     0.00000000
    264      3      O           0.00000000     0.00000000     0.00000000
    265      3      O           0.00000000     0.00000000     0.00000000
    266      3      O           0.00000000     0.00000000     0.00000000
    267      3      O           0.00000000     0.00000000     0.00000000
    268      3      O           0.00000000     0.00000000     0.00000000
    269      3      O           0.00000000     0.00000000     0.00000000
    270      3      O           0.00000000     0.00000000     0.00000000
    271      3      O           0.00000000     0.00000000     0.00000000
    272      3      O           0.00000000     0.00000000     0.00000000
    273      3      O           0.00000000     0.00000000     0.00000000
    274      3      O           0.00000000     0.00000000     0.00000000
    275      3      O           0.00000000     0.00000000     0.00000000
    276      3      O           0.00000000     0.00000000     0.00000000
    277      3      O           0.00000000     0.00000000     0.00000000
    278      3      O           0.00000000     0.00000000     0.00000000
    279      3      O           0.00000000     0.00000000     0.00000000
    280      3      O           0.00000000     0.00000000     0.00000000
    281      3      O           0.00000000     0.00000000     0.00000000
    282      3      O           0.00000000     0.00000000     0.00000000
    283      3      O           0.00000000     0.00000000     0.00000000
    284      3      O           0.00000000     0.00000000     0.00000000
    285      3      O           0.00000000     0.00000000     0.00000000
    286      3      O           0.00000000     0.00000000     0.00000000
    287      3      O           0.00000000     0.00000000     0.00000000
    288      3      O           0.00000000     0.00000000     0.00000000
    289      3      O           0.00000000     0.00000000     0.00000000
    290      3      O           0.00000000     0.00000000     0.00000000
    291      3      O           0.00000000     0.00000000     0.00000000
    292      3      O           0.00000000     0.00000000     0.00000000
    293      3      O           0.00000000     0.00000000     0.00000000
    294      3      O           0.00000000     0.00000000     0.00000000
    295      3      O           0.00000000     0.00000000     0.00000000
    296      3      O           0.00000000     0.00000000     0.00000000
    297      3      O           0.00000000     0.00000000     0.00000000
    298      3      O           0.00000000     0.00000000     0.00000000
    299      3      O           0.00000000     0.00000000     0.00000000
    300      3      O           0.00000000     0.00000000     0.00000000
    301      3      O           0.00000000     0.00000000     0.00000000
    302      3      O           0.00000000     0.00000000     0.00000000
    303      3      O           0.00000000     0.00000000     0.00000000
    304      3      O           0.00000000     0.00000000     0.00000000
    305      3      O           0.00000000     0.00000000     0.00000000
    306      3      O           0.00000000     0.00000000     0.00000000
    307      3      O           0.00000000     0.00000000     0.00000000
    308      3      O           0.00000000     0.00000000     0.00000000
    309      3      O           0.00000000     0.00000000     0.00000000
    310      3      O           0.00000000     0.00000000     0.00000000
    311      3      O           0.00000000     0.00000000     0.00000000
    312      3      O           0.00000000     0.00000000     0.00000000
    313      3      O           0.00000000     0.00000000     0.00000000
    314      3      O           0.00000000     0.00000000     0.00000000
    315      3      O           0.00000000     0.00000000     0.00000000
    316      3      O           0.00000000     0.00000000     0.00000000
    317      3      O           0.00000000     0.00000000     0.00000000
    318      3      O           0.00000000     0.00000000     0.00000000
    319      3      O           0.00000000     0.00000000     0.00000000
    320      3      O           0.00000000     0.00000000     0.00000000
    321      3      O           0.00000000     0.00000000     0.00000000
    322      3      O           0.00000000     0.00000000     0.00000000
    323      3      O           0.00000000     0.00000000     0.00000000
    324      3      O           0.00000000     0.00000000     0.00000000
    325      3      O           0.00000000     0.00000000     0.00000000
    326      3      O           0.00000000     0.00000000     0.00000000
    327      3      O           0.00000000     0.00000000     0.00000000
    328      3      O           0.00000000     0.00000000     0.00000000
    329      3      O           0.00000000     0.00000000     0.00000000
    330      3      O           0.00000000     0.00000000     0.00000000
    331      3      O           0.00000000     0.00000000     0.00000000
    332      3      O           0.00000000     0.00000000     0.00000000
    333      3      O           0.00000000     0.00000000     0.00000000
    334      3      O           0.00000000     0.00000000     0.00000000
    335      3      O           0.00000000     0.00000000     0.00000000
    336      3      O           0.00000000     0.00000000     0.00000000
    337      3      O           0.00000000     0.00000000     0.00000000
    338      3      O           0.00000000     0.00000000     0.00000000
    339      3      O           0.00000000     0.00000000     0.00000000
    340      3      O           0.00000000     0.00000000     0.00000000
    341      3      O           0.00000000     0.00000000     0.00000000
    342      3      O           0.00000000     0.00000000     0.00000000
    343      3      O           0.00000000     0.00000000     0.00000000
    344      3      O           0.00000000     0.00000000     0.00000000
    345      3      O           0.00000000     0.00000000     0.00000000
    346      3      O           0.00000000     0.00000000     0.00000000
    347      3      O           0.00000000     0.00000000     0.00000000
    348      3      O           0.00000000     0.00000000     0.00000000
    349      3      O           0.00000000     0.00000000     0.00000000
    350      3      O           0.00000000     0.00000000     0.00000000
    351      3      O           0.00000000     0.00000000     0.00000000
    352      3      O           0.00000000     0.00000000     0.00000000
    353      3      O           0.00000000     0.00000000     0.00000000
    354      3      O           0.00000000     0.00000000     0.00000000
    355      3      O           0.00000000     0.00000000     0.00000000
    356      3      O           0.00000000     0.00000000     0.00000000
    357      3      O           0.00000000     0.00000000     0.00000000
    358      3      O           0.00000000     0.00000000     0.00000000
    359      3      O           0.00000000     0.00000000     0.00000000
    360      3      O           0.00000000     0.00000000     0.00000000
    361      3      O           0.00000000     0.00000000     0.00000000
    362      3      O           0.00000000     0.00000000     0.00000000
    363      3      O           0.00000000     0.00000000     0.00000000
    364      3      O           0.00000000     0.00000000     0.00000000
    365      3      O           0.00000000     0.00000000     0.00000000
    366      3      O           0.00000000     0.00000000     0.00000000
    367      3      O           0.00000000     0.00000000     0.00000000
    368      3      O           0.00000000     0.00000000     0.00000000
    369      3      O           0.00000000     0.00000000     0.00000000
[...]
 flops  1997 x   288 x   128        8189200465920       0.0%    100.0%      0.0%
 flops  2007 x   288 x   128        8230207979520       0.0%    100.0%      0.0%
 flops  2005 x   256 x   678        8636063293440       0.0%    100.0%      0.0%
 flops  2005 x   288 x   665        9529284441600       0.0%    100.0%      0.0%
 flops  2005 x   288 x   670        9600933196800       0.0%    100.0%      0.0%
 flops  1997 x   256 x   128       10918933954560       0.0%    100.0%      0.0%
 flops  2007 x   256 x   128       10973610639360       0.0%    100.0%      0.0%
 flops  2005 x   256 x   665       12705712588800       0.0%    100.0%      0.0%
 flops  2005 x   256 x   670       12801244262400       0.0%    100.0%      0.0%
 flops  2005 x   288 x   128       16444012953600       0.0%    100.0%      0.0%
 flops    13 x    13 x   128       21562431531264       0.0%    100.0%      0.0%
 flops  2005 x   256 x   128       21925350604800       0.0%    100.0%      0.0%
 flops    13 x    32 x    13      119224018451200       0.0%    100.0%      0.0%
 flops inhomo. stacks             106115712880680     100.0%      0.0%      0.0%
 flops total                       639.551538E+12      16.6%     83.4%      0.0%
 flops max/rank                     28.538161E+12      16.7%     83.3%      0.0%
 matmuls inhomo. stacks                    319200     100.0%      0.0%      0.0%
 matmuls total                        14936309538       0.0%    100.0%      0.0%
 number of processed stacks              20957302       1.5%     98.5%      0.0%
 average stack size                                     1.0     723.7       0.0
 marketing flops                     1.082176E+15
 -------------------------------------------------------------------------------
 # multiplications                          12853
 max memory usage/rank               1.210835E+09
 # max total images/rank                        3
 # max 3D layers                                1
 # MPI messages exchanged                 5860968
 MPI messages size (bytes):
  total size                        10.338093E+12
  min size                           0.000000E+00
  max size                          10.966248E+06
  average size                       1.763888E+06
 MPI breakdown and total messages size (bytes):
             size <=      128               37524                        0
       128 < size <=     8192                   0                        0
      8192 < size <=    32768                1593                 52199424
     32768 < size <=   131072                 531                 20810952
    131072 < size <=  4194304             5573160            7681508774480
   4194304 < size <= 16777216              248160            2656312746560
  16777216 < size                               0                        0
 -------------------------------------------------------------------------------

 *** WARNING in dbcsr_mm.F:291 :: Using a non-square number of MPI ranks ***
 *** might lead to poor performance. Used ranks: 24 Suggested: 25 49     ***

 -------------------------------------------------------------------------------
 -                                                                             -
 -                      DBCSR MESSAGE PASSING PERFORMANCE                      -
 -                                                                             -
 -------------------------------------------------------------------------------
 ROUTINE             CALLS      AVE VOLUME [Bytes]
 MP_Bcast              160                     12.
 MP_Allreduce        64812                    108.
 MP_Alltoall         58727                 804135.
 MP_ISend           591012                 802831.
 MP_IRecv           581784                 808652.
 -------------------------------------------------------------------------------

 -------------------------------------------------------------------------------
 -                                                                             -
 -                                DBM STATISTICS                               -
 -                                                                             -
 -------------------------------------------------------------------------------
    M  x    N  x    K                                          COUNT     PERCENT
 -------------------------------------------------------------------------------

 -------------------------------------------------------------------------------
 -                                                                             -
 -                                GRID STATISTICS                              -
 -                                                                             -
 -------------------------------------------------------------------------------
 LP    KERNEL             BACKEND                              COUNT     PERCENT
 4     collocate ortho    CPU                              264693534      52.14%
 4     integrate ortho    CPU                              132346767      26.07%
 3     collocate ortho    CPU                               46827068       9.22%
 3     integrate ortho    CPU                               23413534       4.61%
 7     integrate ortho    CPU                               16470822       3.24%
 2     collocate ortho    CPU                               10657742       2.10%
 2     integrate ortho    CPU                                5328871       1.05%
 6     integrate ortho    CPU                                2929329       0.58%
 5     collocate ortho    CPU                                1625900       0.32%
 5     integrate ortho    CPU                                1475431       0.29%
 0     collocate general  CPU                                 897840       0.18%
 3     integrate general  CPU                                 882360       0.17%
 8     integrate ortho    CPU                                 101175       0.02%
 6     collocate ortho    CPU                                  32976       0.01%
 9     integrate ortho    CPU                                   2052       0.00%
 -------------------------------------------------------------------------------

 MEMORY| Estimated peak process memory [MiB]                                1155

 -------------------------------------------------------------------------------
 -                                                                             -
 -                         MESSAGE PASSING PERFORMANCE                         -
 -                                                                             -
 -------------------------------------------------------------------------------

 ROUTINE             CALLS      AVE VOLUME [Bytes]
 MP_Group                5
 MP_Bcast            36254                 233713.
 MP_Allreduce        98718                   1215.
 MP_Sync               739
 MP_Alltoall         15865               33773034.
 MP_SendRecv         68448                 118579.
 MP_ISendRecv        35535                 127093.
 MP_Wait            132115
 MP_comm_split         734
 MP_ISend            86218                 806358.
 MP_IRecv            86218                 806521.
 -------------------------------------------------------------------------------


 -------------------------------------------------------------------------------
 -                                                                             -
 -                           R E F E R E N C E S                               -
 -                                                                             -
 -------------------------------------------------------------------------------
 
 CP2K version 2023.2, the CP2K developers group (2023).
 CP2K is freely available from https://www.cp2k.org/ .

 Kuehne,Thomas D.; Iannuzzi,Marcella; Del Ben,Mauro;
 Rybkin,Vladimir V.; Seewald,Patrick; Stein,Frederick; Laino,Teodoro;
 Khaliullin,Rustam Z.; Schuett,Ole; Schiffmann,Florian; Golze,Dorothea;
 Wilhelm,Jan; Chulkov,Sergey; Bani-Hashemian,Mohammad Hossein;
 Weber,Valery; Borstnik,Urban; Taillefumier,Mathieu;
 Jakobovits,Alice Shoshana; Lazzaro,Alfio; Pabst,Hans; Mueller,Tiziano;
 Schade,Robert; Guidon,Manuel; Andermatt,Samuel; Holmberg,Nico;
 Schenter,Gregory K.; Hehn,Anna; Bussy,Augustin; Belleflamme,Fabian;
 Tabacchi,Gloria; Gloess,Andreas; Lass,Michael; Bethune,Iain;
 Mundy,Christopher J.; Plessl,Christian; Watkins,Matt;
 VandeVondele,Joost; Krack,Matthias; Hutter,Juerg. 
 The Journal of Chemical Physics, 152 (19), (2020). 
 CP2K: An electronic structure and molecular dynamics software package -
 Quickstep: Efficient and accurate electronic structure calculations.
 https://doi.org/10.1063/5.0007045

 Goerigk, Lars; Hansen, Andreas; Bauer, Christoph; Ehrlich, Stephan;
 Najibi, Asim; Grimme, Stefan. , 19 (48), (2017). 
 A look at the density functional theory zoo with the advanced GMTKN55 database
 for general main group thermochemistry, kinetics and noncovalent interactions.
 https://doi.org/10.1039/C7CP04913G

 Schuett, Ole; Messmer, Peter; Hutter, Juerg; VandeVondele, Joost. 
 Electronic Structure Calculations on Graphics Processing Units, John
 Wiley & Sons, Ltd, 173-190 (2016). 
 GPU-Accelerated Sparse Matrix-Matrix Multiplication for
 Linear Scaling Density Functional Theory.
 https://doi.org/10.1002/9781118670712.ch8

 Heinecke, A; Henry, G; Hutchinson, M; Pabst, H. 
 Proceedings of Intl. Supercomputing Conference, 981-991 (2016). 
 LIBXSMM: Accelerating Small Matrix Multiplications
 by Runtime Code Generation.
 https://doi.org/10.1109/SC.2016.83

 Borstnik, U; VandeVondele, J; Weber, V; Hutter, J. 
 PARALLEL COMPUTING, 40 (5-6), 47-58 (2014). 
 Sparse matrix multiplication: The distributed block-compressed sparse
 row library.
 https://doi.org/10.1016/j.parco.2014.03.012

 Hutter, J; Iannuzzi, M; Schiffmann, F; VandeVondele, J. 
 WIREs Comput Mol Sci., 4 (1), 15-25 (2014). 
 CP2K: atomistic simulations of condensed matter systems.
 https://doi.org/10.1002/wcms.1159

 Grimme, S; Ehrlich, S; Goerigk, L. 
 JOURNAL OF COMPUTATIONAL CHEMISTRY, 32, 1456 (2011). 
 Effect of the damping function in dispersion corrected density functional theory.
 https://doi.org/10.1002/jcc.21759

 Grimme, S; Antony, J; Ehrlich, S; Krieg, H. 
 JOURNAL OF CHEMICAL PHYSICS, 132 (15), 154104 (2010). 
 A consistent and accurate ab initio parametrization of density
 functional dispersion correction (DFT-D) for the 94 elements H-Pu.
 https://doi.org/10.1063/1.3382344

 VandeVondele, J; Hutter, J. 
 JOURNAL OF CHEMICAL PHYSICS, 127 (11), 114105 (2007). 
 Gaussian basis sets for accurate calculations on molecular systems in
 gas and condensed phases.
 https://doi.org/10.1063/1.2770708

 Kuhne, TD; Krack, M; Mohamed, FR; Parrinello, M. 
 PHYSICAL REVIEW LETTERS, 98 (6), 066401 (2007). 
 Efficient and accurate Car-Parrinello-like approach to
 Born-Oppenheimer molecular dynamics.
 https://doi.org/10.1103/PhysRevLett.98.066401

 Krack, M. 
 THEORETICAL CHEMISTRY ACCOUNTS, 114 (1-3), 145-152 (2005). 
 Pseudopotentials for H to Kr optimized for gradient-corrected
 exchange-correlation functionals.
 https://doi.org/10.1007/s00214-005-0655-y

 VandeVondele, J; Krack, M; Mohamed, F; Parrinello, M; Chassaing, T;
 Hutter, J. COMPUTER PHYSICS COMMUNICATIONS, 167 (2), 103-128 (2005). 
 QUICKSTEP: Fast and accurate density functional calculations using a
 mixed Gaussian and plane waves approach.
 https://doi.org/10.1016/j.cpc.2004.12.014

 Frigo, M; Johnson, SG. 
 PROCEEDINGS OF THE IEEE, 93 (2), 216-231 (2005). 
 The design and implementation of FFTW3.
 https://doi.org/10.1109/JPROC.2004.840301

 Kolafa, J. 
 JOURNAL OF COMPUTATIONAL CHEMISTRY, 25 (3), 335-342 (2004). 
 Time-reversible always stable predictor-corrector method for
 molecular dynamics of polarizable molecules.
 https://doi.org/10.1002/jcc.10385

 VandeVondele, J; Hutter, J. 
 JOURNAL OF CHEMICAL PHYSICS, 118 (10), 4365-4369 (2003). 
 An efficient orbital transformation method for electronic structure
 calculations.
 https://doi.org/10.1063/1.1543154

 Hartwigsen, C; Goedecker, S; Hutter, J. 
 PHYSICAL REVIEW B, 58 (7), 3641-3662 (1998). 
 Relativistic separable dual-space Gaussian pseudopotentials from H to Rn.
 https://doi.org/10.1103/PhysRevB.58.3641

 Lippert, G; Hutter, J; Parrinello, M. 
 MOLECULAR PHYSICS, 92 (3), 477-487 (1997). 
 A hybrid Gaussian and plane wave density functional scheme.
 https://doi.org/10.1080/002689797170220

 Perdew, JP; Burke, K; Ernzerhof, M. 
 PHYSICAL REVIEW LETTERS, 77 (18), 3865-3868 (1996). 
 Generalized gradient approximation made simple.
 https://doi.org/10.1103/PhysRevLett.77.3865

 Goedecker, S; Teter, M; Hutter, J. 
 PHYSICAL REVIEW B, 54 (3), 1703-1710 (1996). 
 Separable dual-space Gaussian pseudopotentials.
 https://doi.org/10.1103/PhysRevB.54.1703


 -------------------------------------------------------------------------------
 -                                                                             -
 -                                T I M I N G                                  -
 -                                                                             -
 -------------------------------------------------------------------------------
 SUBROUTINE                       CALLS  ASD         SELF TIME        TOTAL TIME
                                MAXIMUM       AVERAGE  MAXIMUM  AVERAGE  MAXIMUM
 CP2K                                 1  1.0    0.020    0.021 4884.521 4884.531
 cp_geo_opt                           1  2.0    0.004    0.004 4883.265 4883.276
 geoopt_bfgs                          1  3.0    0.129    0.142 4883.262 4883.272
 cp_eval_at                          58  4.0    0.011    0.071 4865.944 4866.001
 qs_forces                           57  5.0    0.021    0.022 4829.459 4829.469
 qs_energies                         58  6.0    0.005    0.006 4577.045 4577.130
 scf_env_do_scf                      58  7.0    0.003    0.006 4368.479 4368.531
 scf_env_do_scf_inner_loop          858  8.0    0.023    0.159 3284.353 3285.411
 rebuild_ks_matrix                  915  9.8    0.004    0.005 1662.955 1664.690
 qs_ks_build_kohn_sham_matrix       915 10.8    0.126    0.138 1662.951 1664.686
 qs_ks_update_qs_env                917  9.0    0.007    0.008 1437.484 1439.033
 dbcsr_multiply_generic           12853 13.7    0.869    0.961 1254.006 1260.164
 qs_scf_new_mos                     858  9.0    0.006    0.007 1179.036 1182.824
 qs_scf_loop_do_ot                  858 10.0    0.006    0.008 1179.030 1182.818
 ot_scf_mini                        858 11.0    0.032    0.038 1094.631 1096.423
 init_scf_loop                       59  8.0    0.003    0.003 1081.788 1081.820
 pw_transfer                      15279 13.7    0.768    0.826 1039.352 1047.048
 fft_wrap_pw1pw2                  13449 14.8    0.131    0.141 1026.430 1034.126
 multiply_cannon                  12853 14.7    1.222    1.569  983.647 1003.384
 fft_wrap_pw1pw2_180               7725 16.4  170.634  176.382  985.992  992.111
 multiply_cannon_loop             12853 15.7    2.089    2.233  939.123  957.389
 qs_vxc_create                      915 11.8    0.021    0.023  920.001  923.130
 prepare_preconditioner              59  9.0    0.001    0.001  920.894  921.352
 make_preconditioner                 59 10.0    0.002    0.002  884.302  884.504
 qs_rho_update_rho_low              916  9.1    0.005    0.005  857.128  857.994
 calculate_rho_elec                 916 10.1    2.847    2.937  857.123  857.989
 make_full_all                       59 11.0    0.133    0.162  849.492  849.518
 multiply_cannon_multrec         154236 16.7  657.177  702.917  657.357  703.106
 fft3d_ps                         13449 16.8  314.152  324.609  688.223  695.190
 xc_vxc_pw_create                   515 12.7   16.252   17.248  659.477  662.607
 cp_fm_syevd                        734 13.5    0.009    0.011  659.902  660.554
 cp_fm_redistribute_end             734 14.5  330.632  657.039  331.025  657.051
 cp_fm_syevd_base                   734 14.5  324.263  650.232  324.263  650.232
 xc_pw_derive                      4290 14.8    0.081    0.090  624.980  635.432
 ot_mini                            858 12.0    0.008    0.009  615.991  618.936
 xc_rho_set_and_dset_create         915 13.8    8.292    9.563  588.552  592.471
 sum_up_and_integrate               515 11.7    4.956    5.015  532.050  532.310
 integrate_v_rspace                 515 12.7    0.019    0.022  527.092  527.333
 grid_collocate_task_list           916 11.1  469.642  509.709  469.642  509.709
 density_rs2pw                      916 11.1    0.057    0.062  366.473  396.879
 grid_integrate_task_list           515 13.7  365.795  387.850  365.795  387.850
 mp_waitall_1                    765665 17.8  338.261  384.447  338.261  384.447
 apply_preconditioner_dbcsr         517 14.0    0.002    0.002  361.711  363.042
 apply_all                          517 15.0    0.430    0.481  361.710  363.040
 ot_new_cg_direction                458 13.0    0.009    0.010  326.294  326.295
 multiply_cannon_metrocomm3      154236 16.7    0.575    0.678  270.206  315.573
 xc_pw_divergence                   515 13.7    0.032    0.038  301.981  310.895
 qs_ot_get_derivative               458 13.0    0.005    0.008  286.710  289.038
 xc_exc_calc                        400 13.0    1.226    1.356  260.503  260.504
 x_to_yz                           6751 18.5  173.363  176.969  240.501  251.261
 qs_ks_update_qs_env_forces          57  6.0    0.000    0.000  228.214  228.417
 make_m2s                         25706 14.7    0.730    0.864  207.156  209.758
 qs_ot_get_p                        917 11.9    0.007    0.009  199.554  205.646
 rs_pw_transfer                    7270 12.9    0.079    0.086  149.521  181.030
 xc_functional_eval                 915 14.8    0.008    0.010  168.959  171.277
 pbe_lda_eval                       915 15.8  168.950  171.269  168.950  171.269
 make_images                      25706 15.7    3.245    3.366  151.575  154.593
 init_scf_run                        58  7.0    0.001    0.003  153.560  153.579
 scf_env_initial_rho_setup           58  8.0    0.001    0.002  153.559  153.578
 wfi_extrapolate                     58  9.0    0.008    0.010  150.790  150.790
 parallel_gemm_fm                   961 10.2    0.003    0.004  146.903  147.434
 parallel_gemm_fm_gemm              961 11.2    0.003    0.004  146.900  147.431
 cp_fm_gemm                         961 12.2  146.897  147.428  146.897  147.428
 yz_to_x                           6698 17.1   87.545   90.021  133.295  146.801
 mp_alltoall_z22v                 13449 18.8  112.887  145.974  112.887  145.974
 qs_ot_get_orbitals                 858 12.0    0.006    0.008  137.248  138.431
 potential_pw2rs                    515 13.7    0.170    0.219  134.915  135.053
 cp_dbcsr_syevd                     618 13.5    0.048    0.071  130.812  131.320
 qs_ot_p2m_diag                     500 13.0    2.244    2.478  124.107  124.624
 qs_ot_get_derivative_diag          249 14.0    0.008    0.011  104.444  106.006
 rs_pw_transfer_RS2PW_180           974 12.9   18.522   20.345   67.318  100.635
 mp_waitany                       86218 14.9   68.155   99.556   68.155   99.556
 cp_fm_cholesky_reduce               59 12.0   97.949   97.992   97.949   97.992
 -------------------------------------------------------------------------------

 The number of warnings for this run is : 2
 
 -------------------------------------------------------------------------------
  **** **** ******  **  PROGRAM ENDED AT                 2025-01-28 15:45:56.879
 ***** ** ***  *** **   PROGRAM RAN ON                         c0139.ten.osc.edu
 **    ****   ******    PROGRAM RAN BY                                   xiutinc
 ***** **    ** ** **   PROGRAM PROCESS ID                                367573
  **** **  *******  **  PROGRAM STOPPED IN /fs/scratch/PAS2536/xiutinc/386235.ad
                                           l02_01_02_propanol
