     645
 i =        1, E =     -7282.2875455115
 Ti        10.6498980000       15.2901970000       12.9423510000
 Si        19.6131400000        3.0436300000        0.9692800000
 Si        21.3892200000        1.2884700000        7.0773300000
 Si        19.6130400000        3.0648700000        5.2978200000
 Si        21.3681200000        1.2885400000       11.4059400000
 Si        17.4350700000        7.3966200000        3.1439100000
 Si        17.0362600000       23.5433700000        9.2522600000
 Si        17.4349000000       23.1446300000        3.1229100000
 Si         1.2882800000       23.5435200000        9.2308600000
 Si         3.0646000000        0.8904600000       11.0072500000
 Si         6.9981500000       21.3893500000        1.3678500000
 Si         3.0459100000       13.1087800000        7.4632600000
 Si        23.5431800000        9.1518500000        1.3679000000
 Si         3.0436800000        5.2185800000       11.0074000000
 Si        11.3297700000        9.1747600000        4.9035700000
 Si         1.2878200000       21.3685200000       11.4057800000
 Si         3.0646600000       19.6134500000        5.2969900000
 Si         1.2883200000       21.3896200000        7.0769300000
 Si         3.0436400000       19.6130700000        0.9691900000
 Si        23.5428800000        1.2886300000        9.2311500000
 Si        23.1445400000       17.4347300000        3.1230000000
 Si        23.5427700000       17.0358600000        9.2519600000
 Si         7.3970400000       17.4346100000        3.1442500000
 Si         9.1527500000        6.9991100000        4.8995400000
 Si        17.4347100000        3.0650200000        7.4761200000
 Si        23.1446300000       15.2810700000        0.9692900000
 Si        21.3679800000       17.0361000000        7.0773400000
 Si        23.1444400000       15.2598800000        5.2977400000
 Si        21.3890600000       17.0361000000       11.4059800000
 Si         0.8898300000       10.9280200000        3.1439900000
 Si         1.2877400000       19.2145100000        9.2519400000
 Si         0.8896700000       19.6130900000        3.1226800000
 Si        17.0454000000       19.2215100000        9.2274800000
 Si        15.2811000000        5.2188100000        7.4761800000
 Si         6.9985100000        9.1521000000        4.8989900000
 Si         4.8189000000        9.1732200000       11.4041400000
 Si         3.0432500000       10.9267000000        5.2964500000
 Si         4.8189600000        9.1497600000        7.0752300000
 Si         3.0648500000       10.9281000000        0.9695300000
 Si         6.9983900000        4.8199200000        9.2310600000
 Si         7.3982300000       13.1040000000        3.1210400000
 Si         6.9738100000       13.5157500000        9.2613600000
 Si        23.1446800000       13.1061200000        3.1441700000
 Si        21.3682900000       11.3266500000        1.3679600000
 Si        17.4351100000       15.2592000000       11.0073900000
 Si        21.3893700000       23.5432800000        4.8992100000
 Si         0.8897100000        3.0649800000       11.0074400000
 Si        21.3894400000        6.9981800000        1.3679300000
 Si        13.1063100000        3.0438200000        7.4761200000
 Si        10.9280700000        3.0649000000        0.9694300000
 Si         9.1519500000        4.8201600000        7.0772500000
 Si        10.9281500000        3.0437800000        5.2978400000
 Si         9.1732600000        4.8194700000       11.4054900000
 Si        13.1062100000       23.1446100000        3.1440500000
 Si        13.5052800000        6.9998700000        9.2519200000
 Si        13.1060800000        7.3971700000        3.1236200000
 Si         4.8199200000        6.9979500000        9.2307200000
 Si         3.0626400000       17.4355100000        7.4745600000
 Si        19.2147900000       21.3683600000        4.8988800000
 Si        17.0368400000       21.3896800000       11.4057900000
 Si        15.2598700000       23.1449500000        5.2975800000
 Si        17.0368400000       21.3699700000        7.0760200000
 Si        15.2811700000       23.1445900000        0.9692500000
 Si        19.2147600000       17.0358100000        9.2310600000
 Si        19.6131100000        0.8899200000        3.1229700000
 Si        19.2143200000        1.2885100000        9.2522300000
 Si        10.9280800000        0.8899500000        3.1441700000
 Si         9.1518300000       23.5431800000        1.3678900000
 Si         5.2187100000        3.0440100000       11.0075300000
 Si         9.1734900000       11.3279700000        4.9008500000
 Si        13.1921200000       15.2774500000       10.8341100000
 Si         9.1729300000       19.2144100000        1.3678700000
 Si         0.8899500000       15.2593100000        7.4757200000
 Si         7.3967900000       15.2598100000        0.9696400000
 Si         9.1713700000       13.5063600000        7.0862500000
 Si         7.3878700000       15.2814800000        5.2902800000
 Si         5.2188500000       19.6127200000        3.1439400000
 Si         4.8136700000       11.3233600000        9.2454000000
 Si         5.2186700000       10.9281000000        3.1229600000
 Si        13.5200300000       11.3116700000        9.2137900000
 Si        15.2827500000       13.1037300000       11.0069900000
 Si        19.2145500000        9.1730000000        1.3679400000
 Si        15.2599700000        0.8900500000        7.4760600000
 Si        11.3266500000       21.3682200000        1.3678700000
 Si        15.2801100000       17.4406300000       10.9897500000
 Si        23.5429200000       21.3893300000        4.8990400000
 Si        13.5045200000        9.1526200000       11.4055700000
 Si        15.2818500000        7.3949800000        5.2965000000
 Si        13.5181400000        9.1780200000        7.0802200000
 Si        15.2598200000        7.3967600000        0.9695900000
 Si        11.4370000000       13.5260500000        9.1762100000
 Si        10.9281300000        5.2188800000        3.1230900000
 Si        11.3271800000        4.8203200000        9.2522800000
 Si        19.6131700000        5.2185600000        3.1441500000
 Si        21.3682200000       19.2143900000        4.8992400000
 Si         5.1955400000       15.2800300000        7.4220500000
 Si        23.1444700000        3.0648300000       13.1856700000
 Si        21.3681700000        4.8199400000       19.2940400000
 Si        23.1444900000        3.0437400000       17.5144200000
 Si        21.3893700000        4.8198500000       23.6227400000
 Si         0.8892100000       23.1447400000       15.3606900000
 Si         1.2883400000        6.9980600000       21.4690600000
 Si         0.8897100000        7.3966600000       15.3394700000
 Si        17.0363700000        6.9980800000       21.4478500000
 Si        15.2812000000       17.4343700000       19.6929500000
 Si         6.9940100000       21.3746600000       17.1184700000
 Si         4.8198100000       21.3895300000       23.6231000000
 Si         3.0428600000       23.1449700000       17.5147000000
 Si         4.8183600000       21.3689400000       19.2956500000
 Si         3.0639900000       23.1451700000       13.1853700000
 Si         6.9978600000       17.0363300000       21.4487000000
 Si         7.3969900000        0.8908100000       15.3395100000
 Si         6.9982500000        1.2886400000       21.4690200000
 Si        23.1443100000        0.8901300000       15.3605700000
 Si        21.3680000000       23.5433500000       13.5843200000
 Si        17.4349800000        3.0436500000       23.2241100000
 Si        21.3891000000       11.3266600000       17.1157100000
 Si         0.8896000000       15.2810800000       23.2241800000
 Si        21.3891400000       19.2142700000       13.5842000000
 Si        13.1065600000       15.2593700000       19.6921200000
 Si        19.6128200000       15.2596200000       13.1853300000
 Si        21.3892500000       13.5048300000       19.2939500000
 Si        19.6129600000       15.2810200000       17.5143100000
 Si        21.3681300000       13.5049100000       23.6227000000
 Si        17.4346400000       19.6127000000       15.3596100000
 Si        17.0360600000       11.3266200000       21.4684400000
 Si        17.4330800000       10.9277200000       15.3394500000
 Si         1.2882900000       11.3266100000       21.4479100000
 Si         3.0645800000       13.1061300000       23.2242300000
 Si         6.9842200000        9.1393200000       13.5860600000
 Si         3.0435000000        0.8902800000       19.6929000000
 Si        23.5426100000       21.3683100000       13.5843500000
 Si         3.0433400000       17.4347900000       23.2243900000
 Si        11.3230900000       21.3860600000       17.1297700000
 Si         1.2883900000        9.1517500000       23.6228100000
 Si         3.0633800000        7.3961700000       17.5154100000
 Si         1.2880600000        9.1729600000       19.2942200000
 Si         3.0433600000        7.3961200000       13.1857800000
 Si        23.5429500000       13.5048600000       21.4478000000
 Si        23.1444900000        5.2185600000       15.3395000000
 Si        23.5430200000        4.8198900000       21.4690000000
 Si         7.3970500000        5.2179800000       15.3612500000
 Si         9.1509200000       19.2447100000       17.1517500000
 Si        17.4344100000       15.2802400000       19.6923400000
 Si         7.3966800000        3.0443300000       13.1856100000
 Si         9.1730300000        1.2888400000       19.2943600000
 Si         7.3966400000        3.0649800000       17.5146000000
 Si         9.1519300000        1.2884600000       23.6228500000
 Si         5.2137500000        7.3906900000       15.3637500000
 Si         4.8197400000       23.5437100000       21.4695500000
 Si         5.2174000000       23.1463500000       15.3391200000
 Si        13.5050200000       23.5434900000       21.4482700000
 Si        15.2813100000        0.8899900000       23.2242500000
 Si        19.2144100000       21.3895100000       13.5842800000
 Si        15.2589900000       13.1031600000       19.6887800000
 Si        11.3254800000        9.1486600000       13.5853900000
 Si        15.2600900000        5.2185500000       23.2240800000
 Si        23.5429400000        9.1729200000       17.1157900000
 Si        13.5049400000       21.3683500000       23.6228300000
 Si        15.2830000000       19.6135600000       17.5157500000
 Si        13.5067100000       21.3897300000       19.2958200000
 Si        15.2593700000       19.6078200000       13.1809300000
 Si        11.3268600000        1.2884800000       21.4479800000
 Si        10.9226100000       17.4871200000       15.3954800000
 Si        11.3274000000       17.0359100000       21.4692800000
 Si        19.6130700000       17.4345800000       15.3604400000
 Si        21.3680400000        6.9982100000       17.1157500000
 Si         5.2184600000        3.0648800000       19.6927400000
 Si         9.1525500000       17.0329800000       19.2965100000
 Si        10.9287000000       15.2651500000       17.5158300000
 Si         9.1731600000       17.0362800000       23.6229900000
 Si        13.1063900000       10.9170200000       15.3673100000
 Si        13.5051000000       19.2144700000       21.4691300000
 Si        13.1108600000       19.6186300000       15.3414400000
 Si         4.8197600000       19.2144200000       21.4484700000
 Si         3.0645700000        5.2183400000       19.6929500000
 Si        19.2141800000        9.1519500000       17.1156300000
 Si        17.0362900000        9.1730600000       23.6225400000
 Si        15.2524700000       10.9165700000       17.5093600000
 Si        17.0369700000        9.1514900000       19.2944200000
 Si        15.2788800000       10.9280000000       13.1875200000
 Si        19.2145100000        4.8198800000       21.4477900000
 Si        19.6126000000       13.1060000000       15.3392700000
 Si        19.2143200000       13.5047800000       21.4689300000
 Si        10.8711300000       13.0411800000       15.3677300000
 Si         9.1299600000       11.2870700000       13.6086700000
 Si         5.2183100000       15.2598500000       23.2244600000
 Si         9.1735000000       23.5440100000       17.1161000000
 Si        13.1064100000        3.0648400000       23.2241500000
 Si         9.1627400000        6.9905700000       13.5831100000
 Si         0.8895600000        3.0437100000       19.6926700000
  O        24.3537200000        3.5586400000       12.2167400000
  O        20.8742800000        3.5587200000        0.0794800000
  O        20.8742300000        2.5495600000        6.1877200000
  O        18.3248300000        8.6577500000        2.6289100000
  O        15.7751300000        0.0000400000        8.7372500000
  O        18.3247600000       21.8835500000        3.6381000000
  O         2.5495600000       -0.0000900000        9.7465500000
  O         6.1082400000       20.8743100000        2.6290100000
  O         3.5571100000       12.2209100000        8.7312300000
  O        -0.0001100000        9.6669600000        2.6288900000
  O         3.5588100000        6.1082600000        9.7465100000
  O        12.2164900000        8.6581500000        3.6395600000
  O         2.5496000000       20.8742900000        6.1877600000
  O         3.5587300000       20.8742800000        0.0795000000
  O         0.0000000000        2.5494700000        9.7464900000
  O        21.8835400000       18.3247400000        3.6382100000
  O         0.0002700000       15.7750400000        8.7372300000
  O         8.6577800000       18.3249900000        2.6288600000
  O         9.6670300000        6.1083600000        3.6384500000
  O        18.3247200000        2.5495600000        8.7372100000
  O        21.8834800000       14.7660300000        0.0794800000
  O        21.8834600000       15.7751900000        6.1876700000
  O         2.5497900000       18.3247700000        8.7375400000
  O         0.0000400000       20.8742700000        3.6382300000
  O        15.7859000000       18.3380500000        9.7402500000
  O        14.7657600000        6.1083300000        8.7371500000
  O         6.1082500000        9.6668400000        3.6381500000
  O         2.5495400000        9.6670200000        0.0794900000
  O         3.5580800000        9.6661700000        6.1870500000
  O         6.1082800000        3.5587100000        9.7463800000
  O         8.6588500000       12.2155000000        3.6378000000
  O         6.1097200000       14.7633100000        8.6564900000
  O        21.8834700000       12.2165100000        2.6289900000
  O        18.3249600000       15.7754500000        9.7464400000
  O        20.8742600000        0.0000400000        3.6382000000
  O        20.8743200000        6.1082300000        2.6289900000
  O        12.2164100000        3.5585700000        8.7373400000
  O         9.6670100000        2.5495400000        0.0795200000
  O         9.6669800000        3.5587000000        6.1877600000
  O        12.2164700000       21.8834800000        2.6289900000
  O        14.7660200000       21.8834900000        0.0794800000
  O        15.7750500000       21.8839400000        6.1874100000
  O         9.6669800000        0.0000000000        2.6290400000
  O        12.4673100000       14.7573800000        9.4783400000
  O         8.6577300000       15.7752700000        0.0794600000
  O         8.6485900000       14.7680700000        6.1903700000
  O        14.7633000000       12.2168900000        9.7455900000
  O        14.7687100000        8.6554600000        6.1846400000
  O        15.7751800000        8.6577200000        0.0795100000
  O        19.0792000000        4.2464600000        1.9412700000
  O        20.1865600000        0.7544100000        8.0495700000
  O        19.0791800000        1.8617400000        4.3260100000
  O        22.5712800000        0.7544000000       10.4342800000
  O        16.4630400000        6.8625700000        1.9410600000
  O        17.5706700000       22.5718000000        8.0493900000
  O        16.4630400000       23.6786800000        4.3259100000
  O         0.7544600000       22.5713600000       10.4341500000
  O         1.8616600000        1.8617800000       11.5416300000
  O         7.9700300000       20.1865500000        0.8338400000
  O         4.2348800000       14.0742100000        6.8724300000
  O        22.5712000000       10.3547500000        0.8338600000
  O         4.2463700000        4.2464100000       11.5416000000
  O        10.3556900000        7.9706500000        5.4339100000
  O         1.8616000000       19.0792300000        4.3259000000
  O         0.7544800000       20.1866600000        8.0494400000
  O         4.2464300000       19.0792000000        1.9412700000
  O        23.6786000000       16.4629900000        4.3260400000
  O        22.5712400000       17.5703500000        8.0493900000
  O         6.8627000000       16.4630200000        1.9411700000
  O        16.4630500000        1.8617500000        6.9421800000
  O        23.6785600000       14.0782700000        1.9412800000
  O        20.1867000000       17.5703100000       10.4342500000
  O         1.8616700000       11.4621600000        1.9411000000
  O        17.5745100000       20.1887800000       10.4350200000
  O        14.0783100000        4.2464300000        6.9421800000
  O         7.9701700000       10.3548100000        5.4331400000
  O         5.3539500000        7.9699200000       10.4341500000
  O         4.2464600000       11.4616500000        4.3257100000
  O         5.3519100000       10.3515200000        8.0469800000
  O         7.9700200000        5.3534300000       10.4340700000
  O         6.8639900000       14.0743400000        4.3222000000
  O         7.9725200000       12.9782500000        8.0672000000
  O        16.4683800000       16.4647800000       11.5464100000
  O        20.1866100000       22.5712700000        5.4332700000
  O        20.1865100000        7.9700200000        0.8338800000
  O        11.4620800000        1.8617700000        1.9412200000
  O        10.3547200000        5.3538600000        8.0495100000
  O        11.4620900000        4.2465100000        4.3259000000
  O        14.0782700000       23.6786000000        1.9412400000
  O        12.9726100000        7.9737700000        8.0493600000
  O        14.0782000000        6.8618000000        4.3254700000
  O         1.8604600000       16.4635200000        6.9414900000
  O        10.3547600000       22.5712600000        0.8339100000
  O        14.0829000000       14.0855800000       11.5316400000
  O        12.9731800000       10.3543300000       10.4290900000
  O        22.5712200000       20.1864900000        5.4333500000
  O        18.4040400000        2.5495800000        0.0002000000
  O        21.8834400000        0.0792700000        6.1084800000
  O        21.8834100000        6.0289700000        0.1588000000
  O        18.4040500000        3.5586400000        6.2670600000
  O        18.4041200000        6.1874500000        3.6380800000
  O        18.2454600000        0.0793100000        9.7465100000
  O        18.4040600000       24.3537200000        2.6290700000
  O         0.0792100000        0.0793700000        8.7373500000
  O         3.5586700000       24.3537400000       12.2165500000
  O         6.0289600000       21.8834300000        0.1588000000
  O         2.5462800000       12.1334300000        6.2648500000
  O         0.0792600000        8.6578200000        0.1587400000
  O         2.5492900000        6.1875300000       12.2164100000
  O        12.3001900000        9.6679500000        6.1136100000
  O         3.5584800000       18.4047800000        6.2669400000
  O         0.0791600000       21.8834300000        6.1083800000
  O         2.5495800000       18.4040300000        0.0001700000
  O        24.3536400000       18.4040000000        2.6290800000
  O         0.0793000000       18.2452600000        9.7464300000
  O         6.1878200000       18.4041500000        3.6381500000
  O         8.6580100000        6.0292000000        6.1083400000
  O        24.3537000000       15.7751700000        0.0002000000
  O        20.8743800000       18.2455200000        6.1084800000
  O        18.4045500000       14.7655000000       12.2166800000
  O        24.3535200000       14.7659200000        6.2670600000
  O        20.8743400000       12.2957700000        0.1587900000
  O        24.3537100000       12.1371800000        3.6381200000
  O        18.2487500000       18.2462500000        8.7363700000
  O         3.5586700000       12.1371900000        0.0001900000
  O        15.7754100000        6.1868300000        6.2667900000
  O         6.0291100000        8.6572400000        6.1076800000
  O         6.0290100000        6.0288500000        8.7372800000
  O         6.1877200000       12.1364100000        2.6282300000
  O         6.0189600000       12.2848700000        9.7338900000
  O        12.1371800000        2.5495600000        6.2670600000
  O        12.1372000000        3.5586500000        0.0002100000
  O         6.1875200000        2.5494600000       12.2167400000
  O         8.6578400000        0.0792900000        0.1587900000
  O        12.1371700000       24.3537200000        3.6381600000
  O        12.2960200000        6.0296200000        9.7458200000
  O        12.1372000000        6.1877800000        2.6290400000
  O        15.7751600000       24.3537200000        0.0002000000
  O        14.7660600000        6.1875900000        0.0002300000
  O        18.2459000000       20.8746200000        6.1080700000
  O        12.2958000000       20.8743500000        0.1587700000
  O        14.7660600000       24.3537900000        6.2670400000
  O        14.7655400000       18.3959000000       12.2100200000
  O         9.6641400000       12.2979300000        6.1107100000
  O         9.6669400000       18.2455100000        0.1586800000
  O         6.1876300000       14.7661100000        0.0002900000
  O         6.1203900000       15.7793300000        6.1846200000
  O        12.2864500000       12.2202600000        8.6586600000
  O        15.7743900000       12.1366600000       12.2177500000
  O        18.2454900000        9.6669100000        0.1587500000
  O        20.1125300000        1.7804500000        1.8599100000
  O        22.6524900000        1.7877600000        7.9681200000
  O        20.1125500000        4.3278100000        4.4072700000
  O        20.1051300000        1.7877600000       10.5155000000
  O        16.5447500000        7.8956300000        4.4067600000
  O        16.5367900000       22.6527100000       10.5156200000
  O        16.5442900000       22.6452500000        1.8599000000
  O         1.7877900000       22.6524600000        7.9682200000
  O         4.3279500000        1.7804700000       10.5082800000
  O         7.8886900000       22.6525700000        1.8672800000
  O         1.7832100000       13.9975100000        7.9744200000
  O        22.6525700000        7.8886800000        1.8672400000
  O         1.7804800000        4.3277900000       10.5082100000
  O        10.4366700000       10.4360700000        4.4015900000
  O         1.7878800000       20.1050500000       10.5155800000
  O         4.3279900000       20.1126200000        4.4071800000
  O         1.7804700000       20.1125300000        1.8599000000
  O        22.6452400000       16.5442800000        1.8599000000
  O        22.6527200000       16.5370000000       10.5156300000
  O         7.8987900000       16.5448000000        4.4063100000
  O         7.8889700000        7.8886700000        4.4000500000
  O        16.5442200000        4.3278200000        7.9756200000
  O        20.1055300000       16.5366200000        7.9681200000
  O        22.6452200000       13.9968900000        4.4072400000
  O         1.7800100000       10.4278600000        4.4065200000
  O        16.5382400000       20.1074400000        7.9663900000
  O         4.3187400000       10.4358100000       10.5148900000
  O         4.3200600000        7.8879200000        7.9679900000
  O         4.3277600000       10.4286000000        1.8598900000
  O         7.8887600000        4.3204500000        7.9680300000
  O         7.8965600000       13.9966400000        1.8591000000
  O        20.1052000000       10.4360600000        1.8672500000
  O        16.5460800000       13.9960800000       10.5078300000
  O        22.6525700000       22.6526100000        4.3999800000
  O        13.9968500000        1.7804300000        7.9755300000
  O        10.4287400000        4.3278700000        1.8600200000
  O        10.4287400000        1.7804400000        4.4073500000
  O        10.4362500000        4.3202100000       10.5151200000
  O        13.9968400000       22.6453000000        4.4072300000
  O        14.0044200000        7.8885500000       10.5159700000
  O        13.9967700000        7.8960800000        1.8600500000
  O         4.3257000000       16.5414500000        7.9715500000
  O        20.1053000000       20.1051700000        4.3998800000
  O        14.0860400000       16.5452000000       10.3579500000
  O        10.4360400000       20.1052200000        1.8671300000
  O        10.4388900000       13.9976800000        7.9741400000
  O        14.0774300000       10.4252600000        7.9671200000
  O        21.8834700000        2.5494700000       12.2960000000
  O        23.6786100000        1.8617900000       14.1577300000
  O        22.6452300000        4.3277800000       14.0764700000
  O        21.8834800000        3.5587400000       18.4042900000
  O         0.0000200000       21.8833700000       14.8454300000
  O         2.5494600000        6.1082500000       20.9538800000
  O         0.0000000000        8.6578300000       15.8547600000
  O        15.7752600000        6.1082200000       21.9630200000
  O        14.7660600000       18.3247000000       20.9537500000
  O         6.1074200000       21.8841400000       15.8540700000
  O         2.5495800000       21.8832500000       12.2959500000
  O         3.5584800000       21.8835500000       18.4041400000
  O         6.1080500000       15.7751600000       21.9631200000
  O         8.6579200000       -0.0002700000       15.8546000000
  O         6.1082400000        2.5494700000       20.9537900000
  O        21.8835100000       -0.0000600000       14.8455200000
  O        18.3247700000        3.5587100000       21.9629800000
  O        20.8741900000       12.2165600000       15.8547000000
  O         0.0000000000       14.7659900000       21.9629200000
  O        20.8742700000       18.3247800000       14.8456100000
  O        12.2168000000       15.7749200000       20.9536300000
  O        20.8744800000       15.7752000000       12.2961900000
  O        20.8742500000       14.7660600000       18.4042400000
  O        18.3246000000       20.8740700000       14.8454100000
  O        15.7749200000       12.2164100000       20.9525800000
  O        18.3245900000        9.6673400000       15.8548400000
  O         2.5495100000       12.2165200000       21.9629400000
  O         6.0975500000        8.6540100000       14.8534300000
  O         3.5586700000       -0.0000100000       20.9537400000
  O         3.5586500000       18.3246400000       21.9630400000
  O        12.2111700000       20.8727200000       15.8606700000
  O         2.5491900000        8.6579000000       18.4045200000
  O         3.5592400000        8.6576400000       12.2963100000
  O        21.8834700000        6.1082600000       15.8547800000
  O        -0.0000400000        3.5587500000       20.9538200000
  O         8.6604200000        6.1046300000       14.8505400000
  O         9.6705400000       18.4097300000       15.8609100000
  O        18.3246400000       14.7659400000       20.9536200000
  O         8.6577500000        3.5584600000       12.2958100000
  O         8.6577200000        2.5493500000       18.4043100000
  O        14.7661000000        0.0001300000       21.9631300000
  O        12.2155600000        9.6617500000       14.8457100000
  O        14.7665100000       20.8744000000       18.4044900000
  O        15.7752000000       20.8725800000       12.2955300000
  O        12.2165300000        2.5495400000       21.9630300000
  O         9.6623400000       15.7710100000       18.4061500000
  O        14.7655200000        9.6672600000       12.2961500000
  O        15.7760300000        9.6652800000       18.4058100000
  O         9.5863300000       12.1290900000       14.9345100000
  O        22.5712400000        5.3538200000       20.2659900000
  O        23.6785900000        4.2464900000       16.5424500000
  O        20.1865300000        5.3538100000       22.6507300000
  O         1.8617200000       23.6785500000       14.1578900000
  O         0.7543400000        7.9699700000       20.2661000000
  O         1.8612500000        6.8623800000       16.5426100000
  O        17.5703700000        7.9699900000       22.6508400000
  O        14.0782200000       16.4628500000       19.1586200000
  O         7.9695400000       22.5733100000       17.6511100000
  O         5.3538400000       20.1866400000       22.6507700000
  O         4.2462900000       23.6786800000       16.5427200000
  O         5.3537200000       22.5715000000       20.2663000000
  O         7.9701100000       17.5704200000       22.6509000000
  O         6.8626000000        1.8615100000       16.5427300000
  O         7.9700200000        0.7543200000       20.2659800000
  O        22.5712200000       22.5713400000       13.0504200000
  O        16.4629700000        4.2464800000       23.7580900000
  O        20.1865300000       10.3546700000       17.6498700000
  O         1.8617700000       14.0782900000       23.7580700000
  O        20.1865100000       20.1866000000       13.0504500000
  O        19.0794400000       16.4629300000       14.1576700000
  O        20.1865100000       12.9709100000       20.2660700000
  O        19.0791300000       14.0781900000       16.5425000000