ITEM: TIMESTEP
3500000
ITEM: NUMBER OF ATOMS
4761
ITEM: BOX BOUNDS pp pp pp
0.0000000000000000e+00 2.4433001000000001e+01
0.0000000000000000e+00 2.4433001000000001e+01
0.0000000000000000e+00 8.6882897779454566e+01
ITEM: ATOMS id mol type q x y z 
1 1 1 -0.834 12.1743 14.4266 8.15117 
2 1 1 -0.834 15.539 12.057 52.5886 
3 1 1 -0.834 5.81746 15.8806 77.2 
4 1 1 -0.834 8.76739 2.99072 42.816 
5 1 1 -0.834 9.69551 10.2618 73.9938 
6 1 1 -0.834 10.0679 20.6308 46.9848 
7 1 1 -0.834 3.54909 20.0242 64.0634 
8 1 1 -0.834 18.8062 12.3968 76.0723 
9 1 1 -0.834 18.563 13.1366 33.9674 
10 1 1 -0.834 13.6386 4.09289 57.6276 
11 1 1 -0.834 7.02728 20.6033 55.544 
12 1 1 -0.834 1.45726 18.3707 19.2894 
13 1 1 -0.834 21.0663 22.8517 31.2002 
14 1 1 -0.834 23.9541 5.49987 71.236 
15 1 1 -0.834 24.42 18.0108 21.9498 
16 1 1 -0.834 4.65675 21.1073 59.7189 
17 1 1 -0.834 15.8733 4.9013 17.1943 
18 1 1 -0.834 19.0433 9.42345 77.5903 
19 1 1 -0.834 8.22083 16.6059 54.9372 
20 1 1 -0.834 18.7897 3.68807 18.5808 
21 1 1 -0.834 10.8555 8.34254 4.60097 
22 1 1 -0.834 15.4275 23.4582 73.844 
23 1 1 -0.834 14.1126 11.7705 5.66545 
24 1 1 -0.834 22.6659 22.59 60.1644 
25 1 1 -0.834 15.2537 3.60598 41.1313 
26 1 1 -0.834 17.5652 10.7887 34.7828 
27 1 1 -0.834 23.6301 5.56762 15.4195 
28 1 1 -0.834 17.5308 4.39247 46.4003 
29 1 1 -0.834 13.5831 11.5669 55.5183 
30 1 1 -0.834 7.17486 6.6714 46.1535 
31 1 1 -0.834 3.43044 4.79752 63.9946 
32 1 1 -0.834 20.5825 14.6489 57.8638 
33 1 1 -0.834 21.1584 14.2091 53.6263 
34 1 1 -0.834 4.7702 15.6682 74.5874 
35 1 1 -0.834 1.66291 15.8339 43.4299 
36 1 1 -0.834 2.64309 8.72167 63.6543 
37 1 1 -0.834 7.34014 11.3626 55.6831 
38 1 1 -0.834 16.4739 18.6936 67.9223 
39 1 1 -0.834 15.346 7.31335 49.1773 
40 1 1 -0.834 4.38879 11.287 58.1977 
41 1 1 -0.834 0.622025 18.0848 84.0731 
42 1 1 -0.834 19.7652 17.0293 58.8459 
43 1 1 -0.834 23.5538 17.0054 24.6833 
44 1 1 -0.834 21.879 1.4094 26.7711 
45 1 1 -0.834 21.0058 9.26482 73.6223 
46 1 1 -0.834 20.0463 16.1528 76.0943 
47 1 1 -0.834 3.97778 8.58328 77.8195 
48 1 1 -0.834 11.7247 6.26504 84.3454 
49 1 1 -0.834 16.6165 1.33263 51.9115 
50 1 1 -0.834 22.3925 13.8303 60.7651 
51 1 1 -0.834 10.2758 6.03093 75.0341 
52 1 1 -0.834 8.08897 7.92065 48.6664 
53 1 1 -0.834 17.1123 18.8991 79.1752 
54 1 1 -0.834 12.4682 3.86332 51.9952 
55 1 1 -0.834 8.01449 3.59379 60.9404 
56 1 1 -0.834 22.3686 15.7735 77.9942 
57 1 1 -0.834 23.8447 7.59899 62.4299 
58 1 1 -0.834 17.4512 4.91132 50.9992 
59 1 1 -0.834 16.6456 4.85318 0.0425896 
60 1 1 -0.834 15.6251 13.1201 74.1328 
61 1 1 -0.834 3.62115 17.0172 70.5103 
62 1 1 -0.834 22.3678 6.69262 17.7691 
63 1 1 -0.834 12.1264 2.88281 76.5673 
64 1 1 -0.834 17.1617 14.3539 50.7098 
65 1 1 -0.834 20.4314 5.56085 16.1251 
66 1 1 -0.834 7.21134 17.2269 81.8516 
67 1 1 -0.834 12.7977 23.962 78.295 
68 1 1 -0.834 20.8323 20.1696 53.0341 
69 1 1 -0.834 5.58281 5.66163 11.0247 
70 1 1 -0.834 5.37788 11.6262 74.8377 
71 1 1 -0.834 0.0619854 2.4691 11.2232 
72 1 1 -0.834 23.2797 12.3974 41.347 
73 1 1 -0.834 1.20711 6.37661 13.5704 
74 1 1 -0.834 22.8546 3.54878 57.88 
75 1 1 -0.834 0.892545 19.7973 65.959 
76 1 1 -0.834 5.62178 19.5594 17.4595 
77 1 1 -0.834 4.63991 11.7552 20.6367 
78 1 1 -0.834 7.81884 12.8408 43.4362 
79 1 1 -0.834 14.6337 17.2211 70.8529 
80 1 1 -0.834 21.9662 3.49811 41.6207 
81 1 1 -0.834 21.9785 21.9753 50.4834 
82 1 1 -0.834 9.80018 18.9926 13.9574 
83 1 1 -0.834 20.8095 5.56059 74.0497 
84 1 1 -0.834 4.18933 10.4169 43.882 
85 1 1 -0.834 20.2368 5.24071 76.7389 
86 1 1 -0.834 18.4449 16.6864 67.1404 
87 1 1 -0.834 18.8382 22.7278 29.4691 
88 1 1 -0.834 4.77497 0.814964 70.6042 
89 1 1 -0.834 8.98229 3.41762 67.9921 
90 1 1 -0.834 9.0965 21.4229 67.949 
91 1 1 -0.834 8.96233 7.83893 2.59269 
92 1 1 -0.834 0.2405 8.90514 65.1506 
93 1 1 -0.834 19.1352 18.9993 69.2751 
94 1 1 -0.834 3.02463 11.1505 46.6527 
95 1 1 -0.834 6.39231 18.5485 58.6634 
96 1 1 -0.834 11.6646 14.4114 56.2491 
97 1 1 -0.834 21.0731 23.8001 42.6033 
98 1 1 -0.834 19.474 4.13276 56.7038 
99 1 1 -0.834 14.1496 6.15207 61.1826 
100 1 1 -0.834 8.2641 1.42342 15.3289 
101 1 1 -0.834 15.409 2.695 73.896 
102 1 1 -0.834 19.7591 6.63294 37.0361 
103 1 1 -0.834 18.5504 16.5849 70.4386 
104 1 1 -0.834 19.1748 21.8357 51.3741 
105 1 1 -0.834 2.09133 2.99427 33.0714 
106 1 1 -0.834 0.446194 9.24959 80.0218 
107 1 1 -0.834 2.39908 22.4165 60.7708 
108 1 1 -0.834 17.6242 15.2585 61.3009 
109 1 1 -0.834 3.54885 15.5933 1.84777 
110 1 1 -0.834 1.08183 16.1084 55.5691 
111 1 1 -0.834 19.8591 12.1291 56.031 
112 1 1 -0.834 5.26585 17.7537 79.9527 
113 1 1 -0.834 9.42419 21.0952 57.8582 
114 1 1 -0.834 19.5288 7.60831 18.9421 
115 1 1 -0.834 5.99894 3.22179 77.2365 
116 1 1 -0.834 23.3025 12.1319 69.1861 
117 1 1 -0.834 7.75771 1.79025 75.3774 
118 1 1 -0.834 23.2016 12.0107 13.355 
119 1 1 -0.834 4.57312 11.8766 72.2231 
120 1 1 -0.834 10.5508 9.32669 47.9954 
121 1 1 -0.834 14.3849 16.5238 29.757 
122 1 1 -0.834 16.8235 3.07307 54.8179 
123 1 1 -0.834 22.4152 10.3969 44.9477 
124 1 1 -0.834 1.33928 16.0794 17.8209 
125 1 1 -0.834 18.7943 11.8903 51.5388 
126 1 1 -0.834 12.9463 10.7514 73.0628 
127 1 1 -0.834 5.2871 7.51607 58.2081 
128 1 1 -0.834 0.788733 12.4382 48.8536 
129 1 1 -0.834 7.52512 3.0688 33.6008 
130 1 1 -0.834 16.8993 20.14 43.6583 
131 1 1 -0.834 15.2969 2.63306 76.5517 
132 1 1 -0.834 23.1722 13.6148 43.8234 
133 1 1 -0.834 20.9112 6.04343 79.5308 
134 1 1 -0.834 9.05904 23.1881 14.9476 
135 1 1 -0.834 1.86625 11.5098 64.8658 
136 1 1 -0.834 7.94328 8.14075 23.6886 
137 1 1 -0.834 2.35559 8.02 51.2453 
138 1 1 -0.834 4.24061 19.911 69.323 
139 1 1 -0.834 13.9678 14.7684 11.5359 
140 1 1 -0.834 23.4762 8.07778 57.0545 
141 1 1 -0.834 20.8323 14.9566 50.9758 
142 1 1 -0.834 24.2666 15.6184 59.3954 
143 1 1 -0.834 17.6027 14.2801 56.9416 
144 1 1 -0.834 23.1283 19.1483 74.0448 
145 1 1 -0.834 6.66194 21.581 61.509 
146 1 1 -0.834 10.049 17.7305 48.107 
147 1 1 -0.834 17.5142 18.9317 7.22413 
148 1 1 -0.834 13.0515 19.6807 13.8547 
149 1 1 -0.834 1.03732 19.9636 60.4353 
150 1 1 -0.834 4.64643 2.76701 47.3542 
151 1 1 -0.834 12.0956 1.378 60.3076 
152 1 1 -0.834 15.7246 22.3806 20.8222 
153 1 1 -0.834 20.4243 13.8071 78.0862 
154 1 1 -0.834 8.50082 15.036 67.512 
155 1 1 -0.834 3.48296 18.6356 47.9827 
156 1 1 -0.834 5.21396 12.6696 83.206 
157 1 1 -0.834 7.68415 6.12852 55.1577 
158 1 1 -0.834 22.3092 24.3414 78.1138 
159 1 1 -0.834 19.5171 21.8052 68.0675 
160 1 1 -0.834 7.28663 21.6303 44.5724 
161 1 1 -0.834 1.7763 15.9369 77.5037 
162 1 1 -0.834 0.714854 11.3853 15.47 
163 1 1 -0.834 23.2353 10.7665 63.7793 
164 1 1 -0.834 19.5304 17.8212 78.6554 
165 1 1 -0.834 17.4712 5.5355 20.5107 
166 1 1 -0.834 11.3767 11.8173 1.38912 
167 1 1 -0.834 12.2046 5.91809 56.2002 
168 1 1 -0.834 14.2673 12.9566 33.5541 
169 1 1 -0.834 0.462944 8.71617 77.4062 
170 1 1 -0.834 4.67787 12.2198 52.5189 
171 1 1 -0.834 3.42077 21.8647 42.138 
172 1 1 -0.834 4.49203 20.8134 54.2171 
173 1 1 -0.834 13.3525 10.0321 43.671 
174 1 1 -0.834 10.3372 6.48855 50.6027 
175 1 1 -0.834 18.4304 0.976265 22.159 
176 1 1 -0.834 13.7783 21.2791 75.6568 
177 1 1 -0.834 22.3919 0.196383 29.3793 
178 1 1 -0.834 7.77476 1.05096 12.3484 
179 1 1 -0.834 7.20595 13.7769 85.6093 
180 1 1 -0.834 10.9045 8.18261 72.2395 
181 1 1 -0.834 8.64325 17.7348 51.1316 
182 1 1 -0.834 23.1364 12.2175 54.9095 
183 1 1 -0.834 15.6446 9.40522 42.37 
184 1 1 -0.834 3.28475 18.4144 23.6962 
185 1 1 -0.834 3.17169 2.48008 78.755 
186 1 1 -0.834 16.0905 23.3552 64.3994 
187 1 1 -0.834 11.458 18.606 17.1068 
188 1 1 -0.834 5.84669 3.35523 62.5344 
189 1 1 -0.834 18.077 12.3904 36.9616 
190 1 1 -0.834 19.445 9.92816 53.3562 
191 1 1 -0.834 20.1035 17.6803 30.6698 
192 1 1 -0.834 0.855054 5.84282 32.3644 
193 1 1 -0.834 6.51775 24.1657 51.9817 
194 1 1 -0.834 18.8411 0.18852 68.0651 
195 1 1 -0.834 17.3674 2.63606 43.8142 
196 1 1 -0.834 13.815 22.1875 65.2406 
197 1 1 -0.834 19.6987 23.7005 26.7264 
198 1 1 -0.834 10.0406 1.30187 79.8237 
199 1 1 -0.834 2.17312 22.631 56.6998 
200 1 1 -0.834 22.4653 8.01856 80.6955 
201 1 1 -0.834 8.51764 20.3959 75.551 
202 1 1 -0.834 3.6798 2.21192 44.2912 
203 1 1 -0.834 13.2162 0.435467 69.1889 
204 1 1 -0.834 23.4433 17.5368 62.9327 
205 1 1 -0.834 18.9757 7.64457 69.4398 
206 1 1 -0.834 9.38157 11.0616 31.3584 
207 1 1 -0.834 15.7363 23.4305 71.0381 
208 1 1 -0.834 10.6945 2.32199 21.8358 
209 1 1 -0.834 4.33776 1.88833 60.5756 
210 1 1 -0.834 13.0867 19.6134 71.3449 
211 1 1 -0.834 15.4365 12.905 76.8467 
212 1 1 -0.834 17.2949 19.3242 4.45535 
213 1 1 -0.834 9.85874 13.2831 78.2789 
214 1 1 -0.834 8.53824 13.7512 3.56757 
215 1 1 -0.834 19.6081 4.57031 48.898 
216 1 1 -0.834 23.8789 11.7448 66.3796 
217 1 1 -0.834 0.495494 2.08234 63.7923 
218 1 1 -0.834 4.88002 5.60801 47.0951 
219 1 1 -0.834 22.6881 23.3586 1.92945 
220 1 1 -0.834 23.2032 2.07829 50.0515 
221 1 1 -0.834 4.29659 20.8579 49.3979 
222 1 1 -0.834 12.9586 2.1942 0.177786 
223 1 1 -0.834 15.551 19.7936 9.38185 
224 1 1 -0.834 4.12448 4.10604 9.00359 
225 1 1 -0.834 17.5764 5.13465 84.0517 
226 1 1 -0.834 1.71807 8.91936 14.8908 
227 1 1 -0.834 7.52672 12.464 51.8665 
228 1 1 -0.834 12.815 15.3346 45.1379 
229 1 1 -0.834 12.4344 19.2613 38.0783 
230 1 1 -0.834 20.227 22.8117 56.8533 
231 1 1 -0.834 18.3278 17.378 33.4562 
232 1 1 -0.834 1.87431 4.37389 70.4731 
233 1 1 -0.834 4.42272 21.2071 39.2908 
234 1 1 -0.834 1.07094 15.6055 0.498807 
235 1 1 -0.834 11.8763 10.2261 50.3977 
236 1 1 -0.834 9.93916 7.14656 64.357 
237 1 1 -0.834 23.4575 13.2621 16.893 
238 1 1 -0.834 4.48577 5.59585 78.1391 
239 1 1 -0.834 9.78338 20.1448 44.379 
240 1 1 -0.834 11.1584 23.1119 19.8314 
241 1 1 -0.834 10.5888 0.017997 49.0066 
242 1 1 -0.834 8.16969 9.05176 44.2637 
243 1 1 -0.834 18.4231 24.3725 49.0484 
244 1 1 -0.834 3.65928 14.0161 78.803 
245 1 1 -0.834 9.02273 7.67645 42.2099 
246 1 1 -0.834 22.1389 0.287349 55.7417 
247 1 1 -0.834 21.1545 18.9046 76.1864 
248 1 1 -0.834 23.7266 24.1769 72.9883 
249 1 1 -0.834 0.949986 13.2427 51.5618 
250 1 1 -0.834 24.3678 5.34797 56.1613 
251 1 1 -0.834 12.8184 11.5319 79.7897 
252 1 1 -0.834 12.9103 6.26574 68.3008 
253 1 1 -0.834 18.0667 4.37094 41.4994 
254 1 1 -0.834 9.29534 2.86056 47.6639 
255 1 1 -0.834 16.9059 15.8584 47.0642 
256 1 1 -0.834 1.57974 17.365 68.9817 
257 1 1 -0.834 22.1844 7.59529 71.5994 
258 1 1 -0.834 16.722 2.83775 23.576 
259 1 1 -0.834 13.9982 13.8281 78.8249 
260 1 1 -0.834 9.08406 1.45673 65.5189 
261 1 1 -0.834 5.72813 21.2362 71.312 
262 1 1 -0.834 9.36561 0.30653 37.6375 
263 1 1 -0.834 9.4313 8.886 27.2879 
264 1 1 -0.834 5.9649 4.09101 49.9027 
265 1 1 -0.834 6.80747 10.1544 42.253 
266 1 1 -0.834 23.0079 21.8476 47.9808 
267 1 1 -0.834 16.1391 22.1003 59.6942 
268 1 1 -0.834 10.1339 0.236761 40.1109 
269 1 1 -0.834 15.0181 1.73199 81.4461 
270 1 1 -0.834 1.18603 3.24383 66.1943 
271 1 1 -0.834 15.1589 20.0414 51.5764 
272 1 1 -0.834 12.4728 2.64575 43.9084 
273 1 1 -0.834 6.9042 21.7784 35.8382 
274 1 1 -0.834 17.8336 17.2909 11.8346 
275 1 1 -0.834 6.99346 5.14857 4.6809 
276 1 1 -0.834 13.4669 7.66052 2.30101 
277 1 1 -0.834 17.9643 2.37488 48.3723 
278 1 1 -0.834 6.20199 12.2705 79.7314 
279 1 1 -0.834 14.854 18.4056 65.8848 
280 1 1 -0.834 5.69599 0.474541 33.7688 
281 1 1 -0.834 3.44079 13.6554 68.1234 
282 1 1 -0.834 7.48321 15.4217 46.947 
283 1 1 -0.834 16.3081 10.35 56.5521 
284 1 1 -0.834 11.2059 17.5055 45.3722 
285 1 1 -0.834 21.2251 19.5675 64.4909 
286 1 1 -0.834 0.303964 12.7055 61.7961 
287 1 1 -0.834 10.6083 23.2291 71.735 
288 1 1 -0.834 1.63313 18.6667 53.2387 
289 1 1 -0.834 0.0230914 8.42804 44.2224 
290 1 1 -0.834 2.38134 18.7567 76.4438 
291 1 1 -0.834 16.3637 13.2466 6.87717 
292 1 1 -0.834 12.423 7.196 28.2021 
293 1 1 -0.834 15.8725 1.18167 62.0493 
294 1 1 -0.834 14.782 0.909108 59.2565 
295 1 1 -0.834 24.0132 6.42006 36.5573 
296 1 1 -0.834 8.48145 15.1745 52.4427 
297 1 1 -0.834 2.70807 22.3385 74.9149 
298 1 1 -0.834 3.17691 5.21133 57.7881 
299 1 1 -0.834 4.12227 6.91951 52.9296 
300 1 1 -0.834 23.0647 1.40178 43.3952 
301 1 1 -0.834 10.6853 0.176116 58.3479 
302 1 1 -0.834 10.2342 5.05888 53.0899 
303 1 1 -0.834 14.9246 20.1006 62.8829 
304 1 1 -0.834 4.71734 6.85278 49.8259 
305 1 1 -0.834 13.9906 11.733 47.743 
306 1 1 -0.834 12.0956 18.4353 66.8966 
307 1 1 -0.834 13.1171 10.095 70.2298 
308 1 1 -0.834 8.08105 11.235 48.2911 
309 1 1 -0.834 17.8029 5.34541 60.6658 
310 1 1 -0.834 13.4792 21.5348 58.7473 
311 1 1 -0.834 13.2687 24.3793 75.436 
312 1 1 -0.834 4.41047 15.7492 53.213 
313 1 1 -0.834 22.5965 16.1089 72.6604 
314 1 1 -0.834 8.88561 24.2219 45.9729 
315 1 1 -0.834 23.4406 3.7987 73.4585 
316 1 1 -0.834 4.81978 13.1415 18.1506 
317 1 1 -0.834 4.22682 8.36267 46.149 
318 1 1 -0.834 15.6151 8.36557 69.2631 
319 1 1 -0.834 22.0745 8.52178 19.7087 
320 1 1 -0.834 10.0859 8.7323 52.6043 
321 1 1 -0.834 0.170244 22.5132 78.5471 
322 1 1 -0.834 3.19966 14.065 82.3156 
323 1 1 -0.834 11.1809 18.441 42.2954 
324 1 1 -0.834 7.43631 23.7509 67.8214 
325 1 1 -0.834 16.8478 14.3571 31.53 
326 1 1 -0.834 2.77754 19.2061 85.8857 
327 1 1 -0.834 13.1379 2.2707 17.6382 
328 1 1 -0.834 20.6899 21.5629 3.45354 
329 1 1 -0.834 22.505 2.10664 75.6194 
330 1 1 -0.834 1.54728 5.44397 47.4531 
331 1 1 -0.834 18.3604 24.134 84.373 
332 1 1 -0.834 1.31512 13.5655 41.857 
333 1 1 -0.834 17.8601 18.7094 76.249 
334 1 1 -0.834 23.5597 20.5627 53.1983 
335 1 1 -0.834 20.4112 19.5095 1.42238 
336 1 1 -0.834 3.52427 6.89528 75.5728 
337 1 1 -0.834 22.1872 21.7863 73.1116 
338 1 1 -0.834 12.5154 1.08326 41.6243 
339 1 1 -0.834 15.3782 17.9296 31.8493 
340 1 1 -0.834 11.5009 15.0656 61.5569 
341 1 1 -0.834 17.7035 11.048 39.6223 
342 1 1 -0.834 18.5252 12.5711 44.2452 
343 1 1 -0.834 10.4378 11.0126 25.9471 
344 1 1 -0.834 5.47885 19.4037 73.422 
345 1 1 -0.834 12.3167 5.92919 80.8414 
346 1 1 -0.834 16.6032 0.759665 78.7818 
347 1 1 -0.834 3.08728 3.45586 51.1488 
348 1 1 -0.834 6.49447 4.14752 31.309 
349 1 1 -0.834 22.1498 22.8239 53.6149 
350 1 1 -0.834 4.70145 22.4003 45.9953 
351 1 1 -0.834 7.03698 1.43919 72.789 
352 1 1 -0.834 12.7208 2.06722 79.7451 
353 1 1 -0.834 13.3528 22.8644 43.6245 
354 1 1 -0.834 4.71165 17.3409 86.7316 
355 1 1 -0.834 18.44 7.32056 54.3242 
356 1 1 -0.834 24.0277 1.00403 4.56852 
357 1 1 -0.834 11.2523 17.8705 76.3242 
358 1 1 -0.834 0.683108 9.44814 60.2525 
359 1 1 -0.834 5.87737 0.637872 78.2685 
360 1 1 -0.834 7.82141 19.6687 81.1707 
361 1 1 -0.834 20.3349 14.7333 8.58419 
362 1 1 -0.834 12.3605 10.6215 31.2657 
363 1 1 -0.834 1.19736 9.1755 74.635 
364 1 1 -0.834 6.38165 8.88522 74.2725 
365 1 1 -0.834 3.38415 15.1514 72.4186 
366 1 1 -0.834 9.92972 4.48679 56.0764 
367 1 1 -0.834 4.46824 14.3279 21.5523 
368 1 1 -0.834 13.4013 19.0538 53.8906 
369 1 1 -0.834 7.35851 3.1532 45.7368 
370 1 1 -0.834 4.10667 4.05374 37.206 
371 1 1 -0.834 21.1027 23.3184 46.4583 
372 1 1 -0.834 3.46776 4.33494 72.5902 
373 1 1 -0.834 17.2562 7.09962 42.5435 
374 1 1 -0.834 23.2026 5.95983 53.1888 
375 1 1 -0.834 23.6268 21.3342 6.24249 
376 1 1 -0.834 10.082 0.384444 17.9404 
377 1 1 -0.834 15.0118 5.86287 72.9432 
378 1 1 -0.834 7.68396 7.04507 69.5742 
379 1 1 -0.834 6.63751 6.2896 63.0558 
380 1 1 -0.834 3.29378 9.39933 60.9201 
381 1 1 -0.834 1.06605 20.1609 46.4902 
382 1 1 -0.834 0.304438 17.6641 81.051 
383 1 1 -0.834 4.75458 3.14667 34.484 
384 1 1 -0.834 23.8289 23.7538 75.6263 
385 1 1 -0.834 23.6289 0.565991 32.4313 
386 1 1 -0.834 10.4254 12.2693 43.2412 
387 1 1 -0.834 7.27467 6.3094 79.1254 
388 1 1 -0.834 6.94676 12.9675 68.2469 
389 1 1 -0.834 1.42423 19.1151 71.2231 
390 1 1 -0.834 1.62319 7.26405 10.7008 
391 1 1 -0.834 20.0668 14.8543 46.9264 
392 1 1 -0.834 21.1662 16.9367 61.1499 
393 1 1 -0.834 3.1885 3.22518 55.543 
394 1 1 -0.834 1.42681 8.0235 67.7633 
395 1 1 -0.834 22.754 7.12766 74.8178 
396 1 1 -0.834 7.80306 10.3068 68.4556 
397 1 1 -0.834 24.2804 21.6327 71.2922 
398 1 1 -0.834 9.33511 21.136 53.8237 
399 1 1 -0.834 8.34383 16.5527 14.6673 
400 1 1 -0.834 5.88819 5.6601 71.8519 
401 1 1 -0.834 19.626 8.18553 47.3065 
402 1 1 -0.834 10.0967 23.4859 64.7393 
403 1 1 -0.834 6.20586 10.1598 46.0211 
404 1 1 -0.834 13.8433 9.62677 27.6455 
405 1 1 -0.834 15.2508 19.9488 56.2847 
406 1 1 -0.834 17.5956 10.2746 12.1438 
407 1 1 -0.834 9.14339 16.2246 65.3058 
408 1 1 -0.834 16.4977 7.46331 61.8079 
409 1 1 -0.834 18.5638 20.7204 54.6132 
410 1 1 -0.834 13.7876 8.79956 56.3693 
411 1 1 -0.834 14.3675 4.73643 79.2418 
412 1 1 -0.834 23.3469 10.019 51.8954 
413 1 1 -0.834 17.4443 7.95673 79.2665 
414 1 1 -0.834 22.9252 10.824 18.2632 
415 1 1 -0.834 19.226 22.4487 1.4471 
416 1 1 -0.834 11.4788 1.70083 46.3528 
417 1 1 -0.834 15.708 23.4245 81.5542 
418 1 1 -0.834 16.0483 20.314 74.8049 
419 1 1 -0.834 22.1568 1.90191 45.9241 
420 1 1 -0.834 11.2791 17.0489 12.4559 
421 1 1 -0.834 6.6848 17.9038 68.217 
422 1 1 -0.834 11.1265 16.7459 9.57879 
423 1 1 -0.834 15.7726 12.6042 58.2152 
424 1 1 -0.834 0.0509758 11.3493 72.1931 
425 1 1 -0.834 8.82118 19.4321 66.0939 
426 1 1 -0.834 20.093 19.9058 57.8843 
427 1 1 -0.834 22.52 15.3865 66.5175 
428 1 1 -0.834 4.61206 22.9801 36.7911 
429 1 1 -0.834 1.14041 8.78484 38.2323 
430 1 1 -0.834 12.3275 17.2582 69.4194 
431 1 1 -0.834 10.7981 2.28798 50.5563 
432 1 1 -0.834 12.6138 21.8304 46.2011 
433 1 1 -0.834 22.4958 3.12818 64.5104 
434 1 1 -0.834 6.5715 18.5435 77.5857 
435 1 1 -0.834 8.38115 14.4207 56.5041 
436 1 1 -0.834 17.8458 9.01261 75.2052 
437 1 1 -0.834 18.5506 18.191 56.5905 
438 1 1 -0.834 24.116 14.655 83.6935 
439 1 1 -0.834 13.7885 13.1779 61.5734 
440 1 1 -0.834 22.9134 18.3293 78.0882 
441 1 1 -0.834 21.0243 18.5733 6.29804 
442 1 1 -0.834 5.18486 9.56264 56.3432 
443 1 1 -0.834 4.51297 16.3124 68.1157 
444 1 1 -0.834 17.2447 16.3116 58.7009 
445 1 1 -0.834 11.0065 13.3539 67.0709 
446 1 1 -0.834 2.14091 19.7746 82.4833 
447 1 1 -0.834 5.40941 8.6867 63.0206 
448 1 1 -0.834 2.11639 10.5758 51.7589 
449 1 1 -0.834 21.1831 22.221 7.37159 
450 1 1 -0.834 14.2364 20.9665 15.7835 
451 1 1 -0.834 16.4825 16.1177 75.45 
452 1 1 -0.834 7.99299 7.66708 86.4462 
453 1 1 -0.834 4.37899 17.8569 83.493 
454 1 1 -0.834 18.4783 23.3252 4.96807 
455 1 1 -0.834 13.4304 4.21913 21.8267 
456 1 1 -0.834 0.446161 9.74367 69.6924 
457 1 1 -0.834 7.10306 14.8696 79.299 
458 1 1 -0.834 12.6176 12.2617 44.9943 
459 1 1 -0.834 5.39398 8.53321 68.0308 
460 1 1 -0.834 4.28085 23.8206 73.3347 
461 1 1 -0.834 23.3523 18.0926 67.5426 
462 1 1 -0.834 15.1415 3.8156 60.2875 
463 1 1 -0.834 10.0247 0.201377 52.3791 
464 1 1 -0.834 1.44347 5.61465 50.1119 
465 1 1 -0.834 5.63067 7.70361 4.91109 
466 1 1 -0.834 22.1383 21.6397 78.0236 
467 1 1 -0.834 12.9737 7.67469 58.9058 
468 1 1 -0.834 18.5165 9.85341 72.1696 
469 1 1 -0.834 15.8346 10.3132 78.0618 
470 1 1 -0.834 9.57773 3.35135 58.7001 
471 1 1 -0.834 19.5341 2.07293 58.4562 
472 1 1 -0.834 8.55409 13.7233 28.1918 
473 1 1 -0.834 13.6699 16.4189 59.2154 
474 1 1 -0.834 14.9605 22.7387 62.0097 
475 1 1 -0.834 2.64349 8.75141 42.1925 
476 1 1 -0.834 15.8278 15.8453 52.6082 
477 1 1 -0.834 15.034 1.54649 49.2799 
478 1 1 -0.834 5.03678 18.8265 20.4186 
479 1 1 -0.834 19.4851 7.21303 13.0437 
480 1 1 -0.834 13.3491 14.5582 48.9277 
481 1 1 -0.834 20.3515 15.151 68.2655 
482 1 1 -0.834 13.003 0.191851 55.0173 
483 1 1 -0.834 16.5246 11.9417 67.7181 
484 1 1 -0.834 2.67847 4.2043 30.1517 
485 1 1 -0.834 22.4694 6.72436 45.7035 
486 1 1 -0.834 24.228 5.78308 66.7832 
487 1 1 -0.834 1.57559 15.8447 52.2733 
488 1 1 -0.834 5.83751 5.23729 74.7322 
489 1 1 -0.834 16.4603 1.78247 84.0064 
490 1 1 -0.834 10.5443 9.65787 65.3598 
491 1 1 -0.834 2.60613 11.531 18.8575 
492 1 1 -0.834 17.1045 17.2019 44.5663 
493 1 1 -0.834 2.17865 2.04312 7.76323 
494 1 1 -0.834 13.385 12.6335 68.9218 
495 1 1 -0.834 1.88061 22.8057 45.971 
496 1 1 -0.834 1.54426 13.284 70.9127 
497 1 1 -0.834 20.5887 2.45011 62.0885 
498 1 1 -0.834 15.024 23.6797 57.0102 
499 1 1 -0.834 8.67303 4.70612 2.24059 
500 1 1 -0.834 21.9923 11.7446 73.6359 
501 1 1 -0.834 17.3529 16.5782 29.5088 
502 1 1 -0.834 13.6464 14.8234 75.2734 
503 1 1 -0.834 23.9534 4.39445 45.0768 
504 1 1 -0.834 7.61616 14.7727 72.6544 
505 1 1 -0.834 11.7127 5.46003 1.98789 
506 1 1 -0.834 12.0041 21.817 67.5496 
507 1 1 -0.834 14.0426 13.7355 65.9379 
508 1 1 -0.834 5.10473 22.1325 67.2587 
509 1 1 -0.834 24.0135 6.84116 42.1027 
510 1 1 -0.834 22.7004 5.19742 10.9629 
511 1 1 -0.834 5.79587 18.0722 53.7348 
512 1 1 -0.834 21.6344 21.2656 22.9578 
513 1 1 -0.834 7.90395 17.9688 18.6533 
514 1 1 -0.834 0.344116 20.8347 75.5919 
515 1 1 -0.834 9.51049 5.59258 66.6347 
516 1 1 -0.834 18.574 11.8878 79.0739 
517 1 1 -0.834 6.36785 0.665041 46.8401 
518 1 1 -0.834 18.3012 2.00618 73.2556 
519 1 1 -0.834 18.0734 14.9118 80.2064 
520 1 1 -0.834 7.68119 21.4551 13.6345 
521 1 1 -0.834 15.6204 12.0871 49.8796 
522 1 1 -0.834 19.5072 13.7676 70.6778 
523 1 1 -0.834 6.29755 11.0474 26.7303 
524 1 1 -0.834 1.44822 4.37927 77.8219 
525 1 1 -0.834 23.4496 22.8322 27.6853 
526 1 1 -0.834 14.6984 1.50252 45.5015 
527 1 1 -0.834 16.8837 9.26699 46.0773 
528 1 1 -0.834 0.127761 21.2876 63.8952 
529 1 1 -0.834 7.80974 9.25876 71.2926 
530 1 1 -0.834 1.12971 4.53273 53.5487 
531 1 1 -0.834 12.1438 15.7383 66.1534 
532 1 1 -0.834 3.30734 13.7277 76.063 
533 1 1 -0.834 20.4671 11.9898 68.2798 
534 1 1 -0.834 15.6943 4.71406 65.603 
535 1 1 -0.834 21.5985 5.17433 13.4989 
536 1 1 -0.834 23.1817 16.4846 53.2126 
537 1 1 -0.834 1.48064 23.1639 5.22796 
538 1 1 -0.834 3.87185 6.58613 30.4103 
539 1 1 -0.834 22.081 7.25377 59.9312 
540 1 1 -0.834 23.1149 23.0269 24.84 
541 1 1 -0.834 12.0305 5.2286 71.7216 
542 1 1 -0.834 17.5152 18.4247 53.1261 
543 1 1 -0.834 8.73759 12.2551 1.28275 
544 1 1 -0.834 14.3881 13.2655 9.17529 
545 1 1 -0.834 2.6935 12.8754 62.6612 
546 1 1 -0.834 23.2058 17.1065 27.6563 
547 1 1 -0.834 18.0496 16.7235 4.51049 
548 1 1 -0.834 10.1696 8.51247 29.9336 
549 1 1 -0.834 18.9769 23.3863 44.6441 
550 1 1 -0.834 6.69594 17.8755 39.6539 
551 1 1 -0.834 23.9281 18.9946 29.8228 
552 1 1 -0.834 7.02534 17.3347 61.4876 
553 1 1 -0.834 13.8778 6.28199 53.9387 
554 1 1 -0.834 12.502 19.848 56.3596 
555 1 1 -0.834 20.632 18.3586 66.8385 
556 1 1 -0.834 18.3122 19.6384 26.7834 
557 1 1 -0.834 14.78 3.50609 69.579 
558 1 1 -0.834 8.62942 11.5747 5.57217 
559 1 1 -0.834 19.6175 5.93586 58.6947 
560 1 1 -0.834 7.01825 12.698 71.2342 
561 1 1 -0.834 8.70469 6.4468 72.8082 
562 1 1 -0.834 0.75763 5.43322 63.8298 
563 1 1 -0.834 15.1899 10.6711 8.73245 
564 1 1 -0.834 11.1771 20.6227 12.2103 
565 1 1 -0.834 11.0389 8.05599 67.4155 
566 1 1 -0.834 24.1356 12.9226 74.6209 
567 1 1 -0.834 11.8281 21.4557 52.1088 
568 1 1 -0.834 8.40938 10.1579 50.9145 
569 1 1 -0.834 13.5422 2.9126 72.138 
570 1 1 -0.834 15.1086 16.7814 61.5213 
571 1 1 -0.834 13.8737 19.4242 35.4452 
572 1 1 -0.834 8.7747 14.9088 61.9031 
573 1 1 -0.834 18.8255 15.3719 35.3933 
574 1 1 -0.834 2.99956 14.1633 49.0923 
575 1 1 -0.834 0.721195 18.291 0.746149 
576 1 1 -0.834 23.275 2.36358 61.1004 
577 1 1 -0.834 16.1616 22.9403 43.512 
578 1 1 -0.834 3.12763 15.3661 40.951 
579 1 1 -0.834 19.9552 17.3055 43.4747 
580 1 1 -0.834 15.8174 2.09631 16.9429 
581 1 1 -0.834 19.1147 9.24413 44.5666 
582 1 1 -0.834 9.76163 2.62143 62.8989 
583 1 1 -0.834 3.62845 12.4976 85.5962 
584 1 1 -0.834 5.23123 13.2902 61.6302 
585 1 1 -0.834 24.3866 20.2776 23.7348 
586 1 1 -0.834 10.3021 6.00662 69.459 
587 1 1 -0.834 0.847657 13.1828 85.744 
588 1 1 -0.834 14.8822 0.512155 86.0918 
589 1 1 -0.834 7.11273 18.222 70.8802 
590 1 1 -0.834 5.50603 22.9103 76.464 
591 1 1 -0.834 20.7014 17.4408 46.4419 
592 1 1 -0.834 15.9435 13.53 63.8069 
593 1 1 -0.834 13.121 13.8195 53.8716 
594 1 1 -0.834 7.88998 11.3487 65.5803 
595 1 1 -0.834 1.30957 14.6654 64.5364 
596 1 1 -0.834 6.54439 13.9217 58.7236 
597 1 1 -0.834 0.0809633 12.3463 46.0075 
598 1 1 -0.834 5.45009 20.4793 80.2268 
599 1 1 -0.834 4.5473 11.282 23.5388 
600 1 1 -0.834 17.612 0.63803 75.4491 
601 1 1 -0.834 15.6816 9.47035 53.9176 
602 1 1 -0.834 13.9799 13.4283 71.6262 
603 1 1 -0.834 3.99984 0.446318 66.3406 
604 1 1 -0.834 18.6953 4.72861 67.3682 
605 1 1 -0.834 10.461 5.17065 43.5434 
606 1 1 -0.834 3.70236 0.386324 80.4142 
607 1 1 -0.834 21.27 3.90499 71.8593 
608 1 1 -0.834 18.3156 4.11316 71.3564 
609 1 1 -0.834 21.915 21.2967 66.5142 
610 1 1 -0.834 22.6454 13.8806 47.4786 
611 1 1 -0.834 6.1626 14.9228 23.9257 
612 1 1 -0.834 14.6264 9.866 67.3754 
613 1 1 -0.834 19.7497 0.323262 86.567 
614 1 1 -0.834 23.2092 18.1651 48.3116 
615 1 1 -0.834 11.187 14.5062 70.0771 
616 1 1 -0.834 14.5567 19.7728 77.9964 
617 1 1 -0.834 15.8483 17.4678 56.5748 
618 1 1 -0.834 5.27275 7.91962 43.6118 
619 1 1 -0.834 13.5092 7.3508 70.66 
620 1 1 -0.834 2.06482 12.5298 23.524 
621 1 1 -0.834 18.3102 1.35765 63.1095 
622 1 1 -0.834 24.1249 22.3769 31.3931 
623 1 1 -0.834 22.764 20.2339 26.0909 
624 1 1 -0.834 2.02276 6.87552 45.0314 
625 1 1 -0.834 20.6639 14.1706 74.2805 
626 1 1 -0.834 2.89563 11.3432 69.6132 
627 1 1 -0.834 3.3727 18.6231 60.1198 
628 1 1 -0.834 19.3869 20.6666 5.75516 
629 1 1 -0.834 1.92848 6.92126 35.47 
630 1 1 -0.834 13.2262 4.89738 42.6519 
631 1 1 -0.834 20.5896 12.5154 37.6747 
632 1 1 -0.834 11.5771 23.0552 36.948 
633 1 1 -0.834 0.826002 8.23217 72.2102 
634 1 1 -0.834 10.2782 5.45266 86.6381 
635 1 1 -0.834 22.7115 16.0939 20.8987 
636 1 1 -0.834 12.3052 15.4757 79.9658 
637 1 1 -0.834 21.4117 9.41268 69.5147 
638 1 1 -0.834 21.7124 4.9197 61.6184 
639 1 1 -0.834 9.03352 20.0197 17.1651 
640 1 1 -0.834 0.692255 1.91726 54.0799 
641 1 1 -0.834 17.7702 22.8427 23.2891 
642 1 1 -0.834 5.95007 11.7603 2.90345 
643 1 1 -0.834 18.7011 9.9581 67.8672 
644 1 1 -0.834 22.2701 7.02914 38.4074 
645 1 1 -0.834 2.25973 10.3406 21.5833 
646 1 1 -0.834 6.34959 8.48904 25.8175 
647 1 1 -0.834 4.90102 9.84239 53.5985 
648 1 1 -0.834 5.90406 1.08703 6.61678 
649 1 1 -0.834 0.629994 24.393 10.4084 
650 1 1 -0.834 6.64967 12.7437 77.0739 
651 1 1 -0.834 5.90161 16.1606 41.9503 
652 1 1 -0.834 10.8233 13.0852 73.2376 
653 1 1 -0.834 16.0664 20.5574 46.102 
654 1 1 -0.834 7.1701 2.81683 70.0484 
655 1 1 -0.834 3.91382 13.4623 25.108 
656 1 1 -0.834 6.38476 2.057 64.8506 
657 1 1 -0.834 21.536 8.86421 76.4697 
658 1 1 -0.834 20.2305 1.86847 43.5074 
659 1 1 -0.834 22.8358 18.4011 51.4619 
660 1 1 -0.834 18.2468 10.363 42.1445 
661 1 1 -0.834 0.300969 3.62691 6.56633 
662 1 1 -0.834 20.5445 18.1476 27.9125 
663 1 1 -0.834 5.92009 9.10834 0.527517 
664 1 1 -0.834 8.69865 21.3867 63.2383 
665 1 1 -0.834 20.0152 11.9208 17.0885 
666 1 1 -0.834 17.1535 16.9216 49.4537 
667 1 1 -0.834 14.566 18.0086 80.4758 
668 1 1 -0.834 21.6195 13.8149 39.871 
669 1 1 -0.834 18.595 19.1245 47.0059 
670 1 1 -0.834 2.09007 4.81 61.3642 
671 1 1 -0.834 20.5283 11.1174 35.1877 
672 1 1 -0.834 3.18512 18.1098 43.2981 
673 1 1 -0.834 17.8313 14.5501 77.3852 
674 1 1 -0.834 2.50436 10.6589 76.9156 
675 1 1 -0.834 1.72302 16.5036 48.7983 
676 1 1 -0.834 6.20019 9.22444 30.3554 
677 1 1 -0.834 16.3539 16.3461 64.2317 
678 1 1 -0.834 10.0191 17.8813 37.8716 
679 1 1 -0.834 17.9382 8.55827 16.697 
680 1 1 -0.834 2.94617 21.5667 77.7426 
681 1 1 -0.834 16.437 12.5377 60.7139 
682 1 1 -0.834 0.75457 10.6405 57.7715 
683 1 1 -0.834 22.5316 10.4887 60.7909 
684 1 1 -0.834 20.9447 17.0949 2.72406 
685 1 1 -0.834 11.5168 21.3191 70.1267 
686 1 1 -0.834 19.1287 23.4418 53.6081 
687 1 1 -0.834 11.5989 10.6068 5.90316 
688 1 1 -0.834 16.9769 8.06089 52.0172 
689 1 1 -0.834 21.3921 17.3586 69.6868 
690 1 1 -0.834 8.29926 8.06484 57.2588 
691 1 1 -0.834 9.63305 15.719 77.1993 
692 1 1 -0.834 2.56993 5.97723 80.019 
693 1 1 -0.834 7.52986 24.3806 59.8568 
694 1 1 -0.834 24.1257 14.9781 23.0634 
695 1 1 -0.834 16.8656 21.9173 27.0504 
696 1 1 -0.834 21.459 24.1168 61.9465 
697 1 1 -0.834 22.3867 11.8605 57.7869 
698 1 1 -0.834 13.874 1.36384 52.4698 
699 1 1 -0.834 1.99114 9.2503 55.7796 
700 1 1 -0.834 7.45497 17.4776 74.5643 
701 1 1 -0.834 8.47518 22.373 51.6149 
702 1 1 -0.834 18.8166 7.85664 81.5904 
703 1 1 -0.834 7.62181 5.4469 43.4569 
704 1 1 -0.834 22.934 17.8886 55.6037 
705 1 1 -0.834 2.12627 18.3061 62.4982 
706 1 1 -0.834 15.1011 17.2957 12.1005 
707 1 1 -0.834 3.48245 1.90614 11.2083 
708 1 1 -0.834 0.60672 0.74808 78.3639 
709 1 1 -0.834 9.14164 6.17525 5.90399 
710 1 1 -0.834 8.42816 4.42679 76.5437 
711 1 1 -0.834 3.23081 0.909991 5.54992 
712 1 1 -0.834 19.1852 23.5483 72.326 
713 1 1 -0.834 7.60269 0.301163 62.7667 
714 1 1 -0.834 0.545383 16.0535 71.5584 
715 1 1 -0.834 10.554 9.53995 69.6926 
716 1 1 -0.834 18.1099 13.2701 73.0187 
717 1 1 -0.834 11.1317 14.6751 52.2575 
718 1 1 -0.834 2.21868 8.08174 48.1141 
719 1 1 -0.834 6.18967 23.3811 54.6223 
720 1 1 -0.834 21.7042 0.410822 48.6876 
721 1 1 -0.834 17.8919 11.4406 14.947 
722 1 1 -0.834 7.72854 19.599 48.9039 
723 1 1 -0.834 8.59356 13.9213 75.1599 
724 1 1 -0.834 8.45479 23.3322 79.3353 
725 1 1 -0.834 12.2829 19.469 63.7209 
726 1 1 -0.834 15.9797 10.7274 72.2768 
727 1 1 -0.834 15.3505 10.0882 61.9507 
728 1 1 -0.834 4.87987 16.0821 47.7455 
729 1 1 -0.834 14.7716 11.5491 30.6864 
730 1 1 -0.834 24.0697 22.7448 67.5491 
731 1 1 -0.834 8.21029 10.7526 60.9629 
732 1 1 -0.834 11.1714 24.3288 67.6428 
733 1 1 -0.834 16.2872 15.115 69.5872 
734 1 1 -0.834 8.37397 18.6122 63.5268 
735 1 1 -0.834 1.32882 22.0766 26.6645 
736 1 1 -0.834 6.17847 3.91291 7.02115 
737 1 1 -0.834 22.2001 20.4465 31.5006 
738 1 1 -0.834 11.3743 18.1374 79.8702 
739 1 1 -0.834 22.6451 19.7406 69.8842 
740 1 1 -0.834 2.74148 22.703 70.9748 
741 1 1 -0.834 9.9581 0.610253 43.4465 
742 1 1 -0.834 15.8898 6.6981 46.1094 
743 1 1 -0.834 21.7558 4.88761 55.2343 
744 1 1 -0.834 22.6738 20.1633 61.4209 
745 1 1 -0.834 20.866 4.45921 46.3249 
746 1 1 -0.834 18.9434 21.8655 42.5324 
747 1 1 -0.834 16.6799 24.1291 45.9654 
748 1 1 -0.834 20.0194 17.4063 52.8779 
749 1 1 -0.834 11.5031 17.8791 59.5783 
750 1 1 -0.834 12.236 11.798 63.46 
751 1 1 -0.834 19.0208 20.7847 24.4943 