ITEM: TIMESTEP
3000000
ITEM: NUMBER OF ATOMS
4768
ITEM: BOX BOUNDS xy xz yz pp pp pp
0.0000000000000000e+00 2.4433001000000001e+01 0.0000000000000000e+00
0.0000000000000000e+00 2.4433001000000001e+01 0.0000000000000000e+00
0.0000000000000000e+00 8.7675772958794497e+01 0.0000000000000000e+00
ITEM: ATOMS id mol type q x y z
1 1 1 -0.834 5.74301 3.04524 45.4317
2 1 1 -0.834 1.49809 9.57046 14.8676
3 1 1 -0.834 17.9008 3.43599 79.4095
4 1 1 -0.834 21.3297 19.5794 48.4803
5 1 1 -0.834 15.9475 14.8458 29.0951
6 1 1 -0.834 14.0319 2.49748 23.8857
7 1 1 -0.834 2.94769 21.5812 59.2184
8 1 1 -0.834 8.48764 18.7241 81.7178
9 1 1 -0.834 20.8079 15.2365 64.7436
10 1 1 -0.834 16.6587 15.4829 10.7226
11 1 1 -0.834 13.6408 23.9644 64.7495
12 1 1 -0.834 1.69526 17.5544 52.4495
13 1 1 -0.834 0.0360217 12.6043 77.2837
14 1 1 -0.834 3.94213 21.3338 39.9361
15 1 1 -0.834 11.376 11.7878 69.6293
16 1 1 -0.834 18.0132 21.0191 53.13
17 1 1 -0.834 3.14672 10.6413 73.0553
18 1 1 -0.834 14.3087 16.3869 4.80522
19 1 1 -0.834 22.9136 7.5113 44.6568
20 1 1 -0.834 11.5016 23.5243 76.8459
21 1 1 -0.834 22.9861 20.9759 58.7925
22 1 1 -0.834 9.56061 21.9904 34.9445
23 1 1 -0.834 2.67705 7.59022 60.89
24 1 1 -0.834 3.06395 6.53165 74.5609
25 1 1 -0.834 4.13039 23.3234 74.6298
26 1 1 -0.834 8.29367 5.97971 74.9131
27 1 1 -0.834 21.1961 13.5845 57.4676
28 1 1 -0.834 16.4155 10.0692 68.9959
29 1 1 -0.834 19.7927 24.0718 60.5515
30 1 1 -0.834 5.1084 17.0946 80.1612
31 1 1 -0.834 23.1444 4.48053 53.0317
32 1 1 -0.834 23.0553 2.64297 49.1366
33 1 1 -0.834 21.189 13.699 50.2248
34 1 1 -0.834 11.885 3.76401 50.6357
35 1 1 -0.834 14.0118 14.0752 79.2645
36 1 1 -0.834 8.9039 11.1945 58.7321
37 1 1 -0.834 14.0102 24.1021 68.125
38 1 1 -0.834 10.9262 22.9034 63.3728
39 1 1 -0.834 9.59355 12.3214 74.7032
40 1 1 -0.834 1.78715 6.26904 33.116
41 1 1 -0.834 22.904 0.987759 43.6967
42 1 1 -0.834 21.2681 7.19336 72.6704
43 1 1 -0.834 18.4986 11.5665 48.9844
44 1 1 -0.834 5.46967 5.85725 9.43145
45 1 1 -0.834 6.48445 21.0887 70.2817
46 1 1 -0.834 24.0522 11.3 71.9401
47 1 1 -0.834 20.5259 11.5782 81.1286
48 1 1 -0.834 0.0551828 19.122 60.5115
49 1 1 -0.834 12.3173 20.9816 51.6066
50 1 1 -0.834 5.03265 11.8897 57.56
51 1 1 -0.834 18.647 6.79757 57.4484
52 1 1 -0.834 7.08541 20.6891 15.429
53 1 1 -0.834 1.55375 21.0878 77.1675
54 1 1 -0.834 16.3458 8.47527 14.9456
55 1 1 -0.834 23.6549 15.3729 44.8599
56 1 1 -0.834 23.1379 9.01241 63.3441
57 1 1 -0.834 5.27292 20.2117 67.9781
58 1 1 -0.834 19.9949 12.5218 59.9367
59 1 1 -0.834 8.35054 15.3882 79.2348
60 1 1 -0.834 3.22482 17.8359 75.836
61 1 1 -0.834 4.83562 14.0835 47.2093
62 1 1 -0.834 1.23434 14.1213 71.4893
63 1 1 -0.834 1.01609 23.087 43.628
64 1 1 -0.834 20.8777 8.43194 60.0239
65 1 1 -0.834 3.91676 17.6791 68.3901
66 1 1 -0.834 10.878 11.7277 55.015
67 1 1 -0.834 14.1934 16.4825 67.6367
68 1 1 -0.834 0.826959 6.42347 13.8902
69 1 1 -0.834 3.69586 0.384184 37.2748
70 1 1 -0.834 4.24715 18.1161 83.8857
71 1 1 -0.834 16.1592 10.9278 58.1252
72 1 1 -0.834 22.3307 18.4622 76.4912
73 1 1 -0.834 8.57572 1.34643 50.8878
74 1 1 -0.834 16.064 12.759 52.4107
75 1 1 -0.834 20.5161 23.9925 46.0928
76 1 1 -0.834 20.6976 21.3348 51.7327
77 1 1 -0.834 8.45212 2.50474 76.9597
78 1 1 -0.834 13.6375 5.21351 58.9849
79 1 1 -0.834 15.6878 22.2794 57.663
80 1 1 -0.834 0.231242 24.2161 69.1831
81 1 1 -0.834 0.434683 13.5822 17.3388
82 1 1 -0.834 12.576 6.95944 77.0645
83 1 1 -0.834 0.535231 5.85981 61.5638
84 1 1 -0.834 21.4594 19.7377 86.6065
85 1 1 -0.834 19.8398 19.0769 1.27435
86 1 1 -0.834 10.8968 8.90688 25.3099
87 1 1 -0.834 18.7539 5.51671 63.815
88 1 1 -0.834 13.8892 4.80046 43.9135
89 1 1 -0.834 2.6369 13.398 19.146
90 1 1 -0.834 7.62045 1.3559 70.8608
91 1 1 -0.834 17.453 15.9879 48.6437
92 1 1 -0.834 24.2233 11.789 74.7167
93 1 1 -0.834 14.7085 8.11949 56.7461
94 1 1 -0.834 16.7589 4.76948 43.0034
95 1 1 -0.834 17.6517 4.40078 17.0618
96 1 1 -0.834 3.0914 10.1707 79.4275
97 1 1 -0.834 0.167224 23.5404 73.4134
98 1 1 -0.834 14.6037 3.86316 72.1195
99 1 1 -0.834 21.1424 16.7407 26.6254
100 1 1 -0.834 17.8565 13.6032 33.1674
101 1 1 -0.834 21.8731 19.3097 45.3564
102 1 1 -0.834 12.931 22.544 39.3041
103 1 1 -0.834 9.63163 16.5383 64.5112
104 1 1 -0.834 19.2235 11.2591 77.233
105 1 1 -0.834 16.1184 2.97195 84.1431
106 1 1 -0.834 9.96937 20.4709 68.7373
107 1 1 -0.834 6.4847 8.49486 63.9012
108 1 1 -0.834 10.7675 3.83186 65.2658
109 1 1 -0.834 18.4972 18.7045 46.2878
110 1 1 -0.834 20.8536 15.3699 43.2115
111 1 1 -0.834 7.53292 12.6961 4.13486
112 1 1 -0.834 9.08047 1.0216 16.6891
113 1 1 -0.834 13.7306 24.1852 46.0153
114 1 1 -0.834 6.12115 10.3213 27.3807
115 1 1 -0.834 11.7685 8.59285 70.9954
116 1 1 -0.834 3.35541 11.0414 82.9504
117 1 1 -0.834 16.627 16.9264 79.6503
118 1 1 -0.834 2.2114 4.53224 12.3714
119 1 1 -0.834 13.5953 8.3153 74.5883
120 1 1 -0.834 17.3743 23.0445 63.0444
121 1 1 -0.834 9.09314 20.4179 55.1128
122 1 1 -0.834 1.64755 24.113 32.8823
123 1 1 -0.834 17.6212 6.08474 81.3829
124 1 1 -0.834 15.4922 11.2519 7.30212
125 1 1 -0.834 6.11819 20.1411 61.7379
126 1 1 -0.834 15.1188 9.59566 71.7948
127 1 1 -0.834 11.1977 8.84133 61.2196
128 1 1 -0.834 21.9871 14.2456 76.0394
129 1 1 -0.834 23.7218 15.3148 82.3279
130 1 1 -0.834 5.10818 22.0544 78.6074
131 1 1 -0.834 19.143 13.3034 37.7111
132 1 1 -0.834 5.99132 10.394 52.175
133 1 1 -0.834 9.16074 8.79819 63.9421
134 1 1 -0.834 15.7068 10.274 54.896
135 1 1 -0.834 1.88615 11.0594 85.6136
136 1 1 -0.834 23.7077 3.43892 62.23
137 1 1 -0.834 6.48922 7.75692 30.25
138 1 1 -0.834 12.6207 10.719 47.6726
139 1 1 -0.834 1.43108 9.72181 45.7427
140 1 1 -0.834 13.7875 0.924602 55.1203
141 1 1 -0.834 6.81134 3.9539 71.3377
142 1 1 -0.834 16.9762 14.5422 73.2971
143 1 1 -0.834 0.466339 22.7599 79.6819
144 1 1 -0.834 14.8709 21.0474 42.3822
145 1 1 -0.834 11.2349 18.1439 69.9088
146 1 1 -0.834 10.7848 2.36434 84.2751
147 1 1 -0.834 0.920794 6.24954 55.31
148 1 1 -0.834 16.269 22.1944 77.4709
149 1 1 -0.834 2.42689 6.10593 57.8281
150 1 1 -0.834 6.25961 1.32477 34.8512
151 1 1 -0.834 14.6522 11.9632 73.2512
152 1 1 -0.834 10.2279 15.8274 55.8151
153 1 1 -0.834 1.0223 8.80984 64.8219
154 1 1 -0.834 24.2207 18.3437 65.7383
155 1 1 -0.834 10.3909 12.231 1.24316
156 1 1 -0.834 5.43206 1.95418 50.668
157 1 1 -0.834 13.6822 23.4444 71.1466
158 1 1 -0.834 17.7133 23.2136 54.8763
159 1 1 -0.834 17.1292 20.6806 66.9821
160 1 1 -0.834 8.16527 0.364188 78.9115
161 1 1 -0.834 17.1164 19.5232 43.631
162 1 1 -0.834 23.3624 16.8258 68.5314
163 1 1 -0.834 4.21796 11.5002 0.556489
164 1 1 -0.834 5.53866 3.80505 36.6471
165 1 1 -0.834 22.4185 2.48803 74.4626
166 1 1 -0.834 8.6701 9.19216 71.2862
167 1 1 -0.834 16.3323 2.36004 48.5241
168 1 1 -0.834 3.53002 0.122627 64.4072
169 1 1 -0.834 9.73642 19.3402 43.8665
170 1 1 -0.834 3.67058 0.00438883 34.5815
171 1 1 -0.834 19.0121 17.0136 29.4647
172 1 1 -0.834 1.53823 2.23771 30.2488
173 1 1 -0.834 19.7816 20.7662 67.4467
174 1 1 -0.834 21.8739 19.6161 41.025
175 1 1 -0.834 6.87532 4.68264 5.30502
176 1 1 -0.834 19.8547 16.5133 49.9719
177 1 1 -0.834 16.1926 7.36854 46.3985
178 1 1 -0.834 15.0723 8.19034 20.636
179 1 1 -0.834 19.6501 9.51889 36.6442
180 1 1 -0.834 6.37689 0.650614 61.8636
181 1 1 -0.834 11.2119 8.36807 79.1669
182 1 1 -0.834 7.1989 16.3862 85.4257
183 1 1 -0.834 12.457 18.6089 59.835
184 1 1 -0.834 16.6581 17.8646 5.2182
185 1 1 -0.834 3.71803 3.7998 29.6712
186 1 1 -0.834 13.5954 13.4889 29.478
187 1 1 -0.834 10.4855 1.44727 70.2805
188 1 1 -0.834 18.3423 3.99209 58.197
189 1 1 -0.834 10.9258 17.3987 72.5834
190 1 1 -0.834 5.67656 16.7982 45.2554
191 1 1 -0.834 14.58 15.7362 73.1381
192 1 1 -0.834 19.4472 16.8796 77.1179
193 1 1 -0.834 11.3754 13.1707 67.3038
194 1 1 -0.834 11.297 19.6219 13.9633
195 1 1 -0.834 18.1312 23.3739 28.4146
196 1 1 -0.834 12.6557 0.563804 84.8623
197 1 1 -0.834 10.5124 18.3601 56.5479
198 1 1 -0.834 0.0838004 9.9963 67.1298
199 1 1 -0.834 11.1703 10.163 76.9854
200 1 1 -0.834 6.38284 2.74078 67.9977
201 1 1 -0.834 18.0518 8.25461 59.5955
202 1 1 -0.834 15.2984 22.1255 53.8722
203 1 1 -0.834 2.0958 19.9307 83.8309
204 1 1 -0.834 12.2744 19.8162 76.1371
205 1 1 -0.834 17.52 10.8175 60.6973
206 1 1 -0.834 14.9777 12.8965 75.9622
207 1 1 -0.834 11.9635 6.76881 29.4314
208 1 1 -0.834 22.8797 7.48164 77.0991
209 1 1 -0.834 23.8725 16.9939 50.8325
210 1 1 -0.834 8.6122 7.5391 23.9487
211 1 1 -0.834 16.6668 12.5452 71.6453
212 1 1 -0.834 18.7598 7.15062 37.5114
213 1 1 -0.834 6.66624 0.349909 46.4769
214 1 1 -0.834 10.5414 18.3509 66.4861
215 1 1 -0.834 2.88976 7.92244 9.07291
216 1 1 -0.834 21.5133 1.22699 55.0701
217 1 1 -0.834 16.7904 22.5204 46.7384
218 1 1 -0.834 9.25571 9.9844 3.08978
219 1 1 -0.834 13.5021 0.204114 74.5467
220 1 1 -0.834 12.6132 1.92805 44.6502
221 1 1 -0.834 2.87736 15.2735 86.3063
222 1 1 -0.834 23.4337 17.8855 28.0267
223 1 1 -0.834 21.9748 8.57595 39.214
224 1 1 -0.834 2.28297 9.95324 54.5238
225 1 1 -0.834 7.07484 4.00517 7.78741
226 1 1 -0.834 3.41216 2.82272 64.2639
227 1 1 -0.834 12.9741 20.1638 57.2
228 1 1 -0.834 3.49785 14.3026 58.2102
229 1 1 -0.834 13.1604 5.63804 65.3008
230 1 1 -0.834 11.1714 21.3015 48.5615
231 1 1 -0.834 16.5834 14.2164 44.4445
232 1 1 -0.834 8.286 8.34536 51.0734
233 1 1 -0.834 20.9138 18.4734 51.5807
234 1 1 -0.834 21.276 16.2469 74.1732
235 1 1 -0.834 10.1392 17.9911 36.9245
236 1 1 -0.834 13.6065 7.86635 87.4617
237 1 1 -0.834 17.2471 18.6955 60.2035
238 1 1 -0.834 0.550407 0.275692 6.81927
239 1 1 -0.834 16.4765 13.5579 5.8562
240 1 1 -0.834 22.6959 10.9034 58.5254
241 1 1 -0.834 12.3626 18.2833 44.0583
242 1 1 -0.834 23.3671 9.67651 16.6628
243 1 1 -0.834 21.7884 18.0141 79.167
244 1 1 -0.834 4.73351 4.70155 32.1001
245 1 1 -0.834 2.40332 16.8125 58.2765
246 1 1 -0.834 0.439852 6.75417 80.5043
247 1 1 -0.834 2.47999 2.11148 72.5625
248 1 1 -0.834 21.1924 2.53765 60.5111
249 1 1 -0.834 3.54649 24.3944 69.9672
250 1 1 -0.834 21.6284 20.436 27.1745
251 1 1 -0.834 20.7226 22.9942 57.561
252 1 1 -0.834 12.6566 13.4336 51.669
253 1 1 -0.834 11.2565 9.92328 31.2069
254 1 1 -0.834 23.567 20.1395 79.1765
255 1 1 -0.834 12.6229 14.4055 45.0977
256 1 1 -0.834 20.7276 5.28679 44.6217
257 1 1 -0.834 9.00543 15.4427 52.0219
258 1 1 -0.834 21.3301 21.344 2.16845
259 1 1 -0.834 8.29665 8.36226 67.4264
260 1 1 -0.834 1.16922 18.3737 68.0558
261 1 1 -0.834 2.56688 11.319 63.2247
262 1 1 -0.834 16.5355 4.04313 61.3059
263 1 1 -0.834 8.34216 6.54513 71.18
264 1 1 -0.834 20.1466 3.95602 47.5405
265 1 1 -0.834 3.14603 1.8227 5.40345
266 1 1 -0.834 8.25405 9.62733 86.847
267 1 1 -0.834 9.92658 0.0562872 82.2919
268 1 1 -0.834 5.40001 10.3358 23.7478
269 1 1 -0.834 17.9447 0.458323 2.25938
270 1 1 -0.834 16.9633 15.9148 51.565
271 1 1 -0.834 4.40794 4.11242 60.1142
272 1 1 -0.834 6.07257 20.6633 43.7328
273 1 1 -0.834 22.8842 13.3651 42.997
274 1 1 -0.834 11.9515 8.1739 42.9259
275 1 1 -0.834 19.7388 13.1299 35.0515
276 1 1 -0.834 8.17146 22.5611 82.1887
277 1 1 -0.834 4.20649 15.0646 75.247
278 1 1 -0.834 9.33813 19.1237 18.7957
279 1 1 -0.834 15.6264 22.2127 64.8904
280 1 1 -0.834 19.5277 23.3169 4.23018
281 1 1 -0.834 10.6021 12.2632 49.7135
282 1 1 -0.834 22.4077 23.6553 60.0359
283 1 1 -0.834 11.6759 18.051 62.4532
284 1 1 -0.834 20.224 22.0369 62.2652
285 1 1 -0.834 2.0483 13.2241 0.356294
286 1 1 -0.834 8.79852 17.7844 75.7772
287 1 1 -0.834 13.6505 0.122321 58.363
288 1 1 -0.834 17.3406 22.1236 71.462
289 1 1 -0.834 10.8758 0.160601 51.6472
290 1 1 -0.834 18.3196 1.00092 84.157
291 1 1 -0.834 18.0648 16.4932 63.9292
292 1 1 -0.834 1.99441 16.2895 73.0798
293 1 1 -0.834 11.8897 12.1587 27.6308
294 1 1 -0.834 22.9842 21.4177 76.0474
295 1 1 -0.834 12.3822 3.13792 67.4918
296 1 1 -0.834 6.22734 21.3152 12.0668
297 1 1 -0.834 21.1966 7.17154 82.3993
298 1 1 -0.834 23.0259 23.5242 25.3477
299 1 1 -0.834 6.14454 9.46581 77.2719
300 1 1 -0.834 2.81806 1.32533 50.0739
301 1 1 -0.834 12.3862 3.09157 19.3569
302 1 1 -0.834 22.2808 20.0925 61.9175
303 1 1 -0.834 15.0577 1.47519 19.19
304 1 1 -0.834 24.231 14.7313 66.8258
305 1 1 -0.834 14.9123 8.03284 44.0537
306 1 1 -0.834 23.602 4.27873 55.8336
307 1 1 -0.834 17.3614 7.2071 17.1921
308 1 1 -0.834 23.9971 24.1379 65.4735
309 1 1 -0.834 4.63014 11.0564 54.9371
310 1 1 -0.834 22.0813 18.138 58.238
311 1 1 -0.834 1.15978 2.74682 44.9413
312 1 1 -0.834 7.94927 11.5428 23.7637
313 1 1 -0.834 0.193513 15.6209 86.6492
314 1 1 -0.834 7.23911 22.4277 47.6267
315 1 1 -0.834 7.65232 5.25974 31.9398
316 1 1 -0.834 21.1051 4.17426 15.1654
317 1 1 -0.834 1.26117 6.16642 77.81
318 1 1 -0.834 20.3383 11.1027 39.0379
319 1 1 -0.834 3.45274 17.6287 24.704
320 1 1 -0.834 6.99296 16.0194 53.955
321 1 1 -0.834 11.9959 14.7541 35.9547
322 1 1 -0.834 15.9858 22.6032 51.3371
323 1 1 -0.834 19.0894 22.0251 42.3679
324 1 1 -0.834 15.9862 14.9496 57.5952
325 1 1 -0.834 16.0734 17.8146 55.9924
326 1 1 -0.834 10.5325 5.6934 72.9264
327 1 1 -0.834 3.44027 2.05014 46.468
328 1 1 -0.834 19.214 4.70862 83.067
329 1 1 -0.834 13.8324 20.6537 63.3674
330 1 1 -0.834 19.1855 14.9847 53.3347
331 1 1 -0.834 12.9043 14.6498 56.3775
332 1 1 -0.834 6.50797 9.23404 69.6527
333 1 1 -0.834 15.4191 2.94429 41.1813
334 1 1 -0.834 6.42722 3.05166 62.8916
335 1 1 -0.834 0.630145 19.267 57.5014
336 1 1 -0.834 11.233 6.5491 5.82346
337 1 1 -0.834 6.4183 17.2125 65.0512
338 1 1 -0.834 19.6861 12.4305 16.5558
339 1 1 -0.834 7.6278 14.6261 71.4963
340 1 1 -0.834 4.22536 5.63432 4.76499
341 1 1 -0.834 5.59789 7.18591 71.2787
342 1 1 -0.834 1.19147 4.92249 30.7401
343 1 1 -0.834 4.25429 16.0168 49.5384
344 1 1 -0.834 21.5844 21.735 65.6744
345 1 1 -0.834 17.5422 13.1314 78.7373
346 1 1 -0.834 8.15786 18.0622 51.1123
347 1 1 -0.834 1.78608 19.5363 72.4927
348 1 1 -0.834 0.484131 17.8694 25.8497
349 1 1 -0.834 13.355 8.02209 24.92
350 1 1 -0.834 17.922 19.3933 76.3971
351 1 1 -0.834 2.22591 12.9925 81.5619
352 1 1 -0.834 11.3085 2.40085 75.8128
353 1 1 -0.834 23.6317 12.759 62.4924
354 1 1 -0.834 10.4903 2.52863 62.9022
355 1 1 -0.834 8.03676 9.90514 29.6868
356 1 1 -0.834 9.86788 16.5866 40.0026
357 1 1 -0.834 3.2595 19.7632 52.0931
358 1 1 -0.834 2.88845 21.7901 46.2055
359 1 1 -0.834 11.8711 21.1877 41.6189
360 1 1 -0.834 12.2043 16.0432 80.9866
361 1 1 -0.834 18.6726 5.66636 51.7151
362 1 1 -0.834 16.9985 10.9884 13.7895
363 1 1 -0.834 2.33114 20.2423 20.9681
364 1 1 -0.834 13.8603 23.4 18.9544
365 1 1 -0.834 24.2238 9.4858 42.8215
366 1 1 -0.834 0.781768 5.15205 73.7683
367 1 1 -0.834 12.7368 22.1863 43.8781
368 1 1 -0.834 9.16689 4.46543 27.7826
369 1 1 -0.834 0.706827 9.93212 77.8499
370 1 1 -0.834 8.76256 8.4364 44.3071
371 1 1 -0.834 17.8061 1.61257 58.9517
372 1 1 -0.834 7.45925 14.5391 64.2884
373 1 1 -0.834 10.9662 5.68874 43.5125
374 1 1 -0.834 9.46181 3.84742 56.1538
375 1 1 -0.834 18.9871 5.87173 54.4917
376 1 1 -0.834 15.4017 19.7651 46.0835
377 1 1 -0.834 3.78466 0.429774 57.8878
378 1 1 -0.834 7.14092 6.10776 68.3225
379 1 1 -0.834 18.5959 12.6546 55.0952
380 1 1 -0.834 4.06827 7.3238 31.642
381 1 1 -0.834 0.292499 7.35405 16.5108
382 1 1 -0.834 1.32236 24.0617 29.2576
383 1 1 -0.834 8.12484 21.8979 50.0739
384 1 1 -0.834 14.8478 3.15178 16.9634
385 1 1 -0.834 14.1604 12.6461 35.4201
386 1 1 -0.834 10.1093 23.8715 59.0929
387 1 1 -0.834 4.06496 15.6989 22.1671
388 1 1 -0.834 10.5772 13.0469 43.5957
389 1 1 -0.834 21.3844 8.55671 19.7606
390 1 1 -0.834 4.56295 20.1795 75.5033
391 1 1 -0.834 19.3426 3.32464 55.5547
392 1 1 -0.834 6.76151 5.01946 56.5945
393 1 1 -0.834 4.35775 15.4707 83.0937
394 1 1 -0.834 21.4622 5.17567 62.3055
395 1 1 -0.834 8.16485 12.4336 87.0349
396 1 1 -0.834 19.2666 17.6764 57.4973
397 1 1 -0.834 15.2811 10.6999 46.2882
398 1 1 -0.834 17.2238 6.78622 74.1569
399 1 1 -0.834 18.9758 9.45202 69.9926
400 1 1 -0.834 12.1711 4.93938 54.1497
401 1 1 -0.834 24.4288 6.65934 39.4405
402 1 1 -0.834 6.06515 4.69391 51.253
403 1 1 -0.834 13.927 8.58866 27.9637
404 1 1 -0.834 7.15639 18.9067 78.8853
405 1 1 -0.834 3.59993 10.5612 21.1799
406 1 1 -0.834 16.1602 2.76119 25.6472
407 1 1 -0.834 4.78467 8.31497 53.2009
408 1 1 -0.834 2.09671 5.22655 63.9229
409 1 1 -0.834 7.02785 18.469 58.1635
410 1 1 -0.834 5.94965 5.50371 34.5802
411 1 1 -0.834 4.64922 7.6845 6.7965
412 1 1 -0.834 0.379355 9.45538 38.8309
413 1 1 -0.834 2.01575 23.648 67.0417
414 1 1 -0.834 11.1008 24.1004 54.5866
415 1 1 -0.834 8.9248 12.5609 65.8179
416 1 1 -0.834 22.608 6.47889 14.1757
417 1 1 -0.834 18.9014 19.9039 6.09033
418 1 1 -0.834 23.7732 9.69349 54.6098
419 1 1 -0.834 24.4119 15.3506 57.6112
420 1 1 -0.834 19.5576 9.40696 11.1974
421 1 1 -0.834 7.05562 15.5767 75.0718
422 1 1 -0.834 13.0742 15.8751 49.3135
423 1 1 -0.834 21.5055 13.0674 53.6361
424 1 1 -0.834 0.463886 13.5277 68.9156
425 1 1 -0.834 22.9936 7.81959 58.1823
426 1 1 -0.834 0.786879 23.7019 59.5381
427 1 1 -0.834 10.2708 19.22 52.6011
428 1 1 -0.834 12.9498 20.2772 36.4252
429 1 1 -0.834 15.8027 9.78025 41.5337
430 1 1 -0.834 20.0001 18.2855 43.6012
431 1 1 -0.834 18.5108 1.69134 62.075
432 1 1 -0.834 23.3798 11.7581 52.3064
433 1 1 -0.834 20.3611 15.53 33.5702
434 1 1 -0.834 0.665155 21.1539 51.6407
435 1 1 -0.834 18.1319 4.53427 70.4881
436 1 1 -0.834 17.6108 0.449728 26.2464
437 1 1 -0.834 3.4521 6.35055 35.3185
438 1 1 -0.834 10.5065 18.5138 49.5513
439 1 1 -0.834 2.83044 15.2683 26.325
440 1 1 -0.834 24.3049 20.9252 65.0846
441 1 1 -0.834 1.92514 1.00158 10.9549
442 1 1 -0.834 15.473 12.7144 81.1698
443 1 1 -0.834 19.2473 3.43287 19.0899
444 1 1 -0.834 2.87375 15.722 65.2185
445 1 1 -0.834 8.00603 11.8229 50.7441
446 1 1 -0.834 11.3376 3.76695 81.8062
447 1 1 -0.834 10.3535 9.50412 28.161
448 1 1 -0.834 19.0131 6.78673 19.5329
449 1 1 -0.834 21.6571 3.21457 42.9218
450 1 1 -0.834 19.6159 12.2516 42.9843
451 1 1 -0.834 12.1883 5.52678 62.3528
452 1 1 -0.834 9.93886 14.2164 3.19022
453 1 1 -0.834 16.2687 23.5467 83.298
454 1 1 -0.834 21.4422 17.2564 71.6672
455 1 1 -0.834 17.0563 12.4014 67.569
456 1 1 -0.834 20.5603 5.98724 78.3946
457 1 1 -0.834 19.8902 0.314164 75.3221
458 1 1 -0.834 15.765 5.60915 53.1643
459 1 1 -0.834 9.03618 6.8533 1.54061
460 1 1 -0.834 0.955542 9.04544 69.6678
461 1 1 -0.834 2.20311 24.2681 47.8279
462 1 1 -0.834 10.7225 22.7863 71.8968
463 1 1 -0.834 21.5439 17.4045 3.28282
464 1 1 -0.834 12.5609 21.2944 59.6195
465 1 1 -0.834 10.3389 15.5002 49.4135
466 1 1 -0.834 13.8716 23.2412 78.3579
467 1 1 -0.834 13.8268 20.7398 15.8812
468 1 1 -0.834 1.83371 2.11487 69.4088
469 1 1 -0.834 14.8042 22.8876 60.2549
470 1 1 -0.834 10.1496 6.63577 49.8852
471 1 1 -0.834 3.28745 20.2359 79.6102
472 1 1 -0.834 6.86472 9.70012 42.763
473 1 1 -0.834 9.5765 19.8524 58.4728
474 1 1 -0.834 21.789 11.3356 12.1088
475 1 1 -0.834 13.9089 21.6274 47.4617
476 1 1 -0.834 4.12759 9.05419 65.1523
477 1 1 -0.834 21.7544 17.7588 63.0762
478 1 1 -0.834 2.08709 5.73451 37.5646
479 1 1 -0.834 15.7971 12.467 49.3174
480 1 1 -0.834 9.55661 21.9462 45.4854
481 1 1 -0.834 12.7145 13.8352 73.3805
482 1 1 -0.834 1.93438 15.8693 45.6121
483 1 1 -0.834 13.7419 6.03166 23.2169
484 1 1 -0.834 16.9858 12.7258 46.6447
485 1 1 -0.834 7.18887 15.4339 82.7095
486 1 1 -0.834 12.0016 23.8838 48.5364
487 1 1 -0.834 5.37788 12.2772 80.8004
488 1 1 -0.834 20.1964 0.873843 43.7307
489 1 1 -0.834 11.2236 15.7138 33.4484
490 1 1 -0.834 7.65397 14.0531 49.007
491 1 1 -0.834 3.87517 19.9716 54.7562
492 1 1 -0.834 9.20095 8.16949 76.5362
493 1 1 -0.834 22.7332 17.5412 23.8988
494 1 1 -0.834 2.24485 20.6454 66.9837
495 1 1 -0.834 8.20124 15.9686 47.0943
496 1 1 -0.834 12.2683 12.1175 60.442
497 1 1 -0.834 14.7366 12.6288 56.1912
498 1 1 -0.834 9.07737 21.7268 12.9145
499 1 1 -0.834 0.659706 13.8389 59.9947
500 1 1 -0.834 16.8244 22.7079 44.0832
501 1 1 -0.834 5.8409 22.9937 41.9867
502 1 1 -0.834 9.50969 7.41184 41.7347
503 1 1 -0.834 0.542259 10.566 82.6889
504 1 1 -0.834 15.6756 11.6666 32.3845
505 1 1 -0.834 11.1032 8.9192 53.082
506 1 1 -0.834 16.312 5.27668 24.7283
507 1 1 -0.834 4.20265 5.56917 69.416
508 1 1 -0.834 21.6158 0.86415 51.7713
509 1 1 -0.834 4.22568 13.1752 21.8793
510 1 1 -0.834 3.42021 21.8541 71.832
511 1 1 -0.834 1.2383 8.7492 57.2365
512 1 1 -0.834 6.70359 14.1324 57.1054
513 1 1 -0.834 12.3668 11.116 7.64913
514 1 1 -0.834 14.4134 18.2302 80.911
515 1 1 -0.834 2.60518 6.01648 47.7259
516 1 1 -0.834 3.89884 15.1133 1.47121
517 1 1 -0.834 21.6871 22.0612 79.7326
518 1 1 -0.834 22.7182 13.7649 71.2765
519 1 1 -0.834 24.3527 6.61773 42.3952
520 1 1 -0.834 17.8467 14.2697 69.6403
521 1 1 -0.834 20.8582 20.4113 56.1113
522 1 1 -0.834 9.43945 3.60569 53.2648
523 1 1 -0.834 9.27691 5.63207 4.17252
524 1 1 -0.834 10.9564 22.5643 66.7612
525 1 1 -0.834 23.0954 15.0102 21.1827
526 1 1 -0.834 7.13465 12.7003 26.0442
527 1 1 -0.834 5.54302 17.6205 73.8183
528 1 1 -0.834 21.7465 9.69818 72.8363
529 1 1 -0.834 23.1092 21.7227 70.7581
530 1 1 -0.834 7.97725 20.0369 36.1505
531 1 1 -0.834 14.9634 14.7238 69.4732
532 1 1 -0.834 21.0639 8.36694 42.6732
533 1 1 -0.834 5.56419 6.32541 73.9963
534 1 1 -0.834 4.50188 9.18661 62.1118
535 1 1 -0.834 4.7106 2.54767 70.137
536 1 1 -0.834 2.45343 7.01097 52.9843
537 1 1 -0.834 6.18495 19.9372 46.3234
538 1 1 -0.834 9.76952 8.77588 7.65312
539 1 1 -0.834 13.4709 15.997 61.1998
540 1 1 -0.834 8.86224 3.1256 42.9277
541 1 1 -0.834 15.0262 14.7693 47.7318
542 1 1 -0.834 10.2366 6.8033 65.5231
543 1 1 -0.834 23.9522 5.41137 46.3692
544 1 1 -0.834 7.25741 18.6992 72.0076
545 1 1 -0.834 6.337 1.17769 38.2137
546 1 1 -0.834 17.6174 15.3897 55.5426
547 1 1 -0.834 14.3523 15.8725 52.1413
548 1 1 -0.834 12.8996 15.1623 8.23396
549 1 1 -0.834 20.3442 3.1087 52.5959
550 1 1 -0.834 21.6088 20.85 32.4166
551 1 1 -0.834 14.8058 2.26645 75.9439
552 1 1 -0.834 7.77921 17.5708 38.7473
553 1 1 -0.834 4.33123 9.26069 3.11282
554 1 1 -0.834 16.0692 19.1342 7.64003
555 1 1 -0.834 2.34844 14.866 51.4434
556 1 1 -0.834 17.5041 16.7461 68.1529
557 1 1 -0.834 16.9456 6.45422 21.9812
558 1 1 -0.834 19.6587 5.6232 66.5565
559 1 1 -0.834 1.20905 13.0841 53.3421
560 1 1 -0.834 22.8865 3.21418 79.0976
561 1 1 -0.834 13.7268 16.4786 58.5277
562 1 1 -0.834 14.0808 3.05098 86.0922
563 1 1 -0.834 17.8319 7.80876 68.0731
564 1 1 -0.834 8.7886 4.39224 50.7117
565 1 1 -0.834 20.9088 22.989 86.7085
566 1 1 -0.834 19.968 7.04916 75.0228
567 1 1 -0.834 16.9986 10.5122 37.7926
568 1 1 -0.834 0.525384 19.4779 86.1545
569 1 1 -0.834 2.77966 13.0033 44.6088
570 1 1 -0.834 21.9825 6.94554 17.474
571 1 1 -0.834 8.13187 5.63198 43.7276
572 1 1 -0.834 10.3832 16.9081 15.5226
573 1 1 -0.834 9.38249 17.7512 60.4215
574 1 1 -0.834 24.0643 18.4742 71.1773
575 1 1 -0.834 18.9534 15.5568 46.3162
576 1 1 -0.834 11.6224 6.89757 85.9423
577 1 1 -0.834 20.9767 10.761 55.6866
578 1 1 -0.834 10.9381 5.01049 1.1275
579 1 1 -0.834 17.4191 0.800445 70.9777
580 1 1 -0.834 11.6036 5.47454 27.1379
581 1 1 -0.834 21.9857 23.5035 74.2723
582 1 1 -0.834 8.28945 1.0665 40.1824
583 1 1 -0.834 22.6206 17.8429 43.4039
584 1 1 -0.834 4.2126 4.00989 79.5837
585 1 1 -0.834 2.03645 11.1101 58.896
586 1 1 -0.834 15.0153 9.38253 60.3387
587 1 1 -0.834 17.122 3.34008 73.3127
588 1 1 -0.834 21.5801 15.1148 79.0152
589 1 1 -0.834 14.4564 10.9686 9.838
590 1 1 -0.834 6.34657 0.167817 11.4792
591 1 1 -0.834 16.8519 17.3527 35.5725
592 1 1 -0.834 19.8473 9.02389 48.6178
593 1 1 -0.834 4.48441 23.7799 45.1733
594 1 1 -0.834 10.834 15.5535 58.6634
595 1 1 -0.834 18.8001 9.70597 75.1153
596 1 1 -0.834 17.4794 19.4275 48.8726
597 1 1 -0.834 18.7695 21.4058 0.148426
598 1 1 -0.834 5.4697 13.1325 62.8493
599 1 1 -0.834 14.0094 21.9338 75.692
600 1 1 -0.834 12.8901 17.7624 78.3061
601 1 1 -0.834 5.61119 17.6918 60.9053
602 1 1 -0.834 10.3339 12.3153 79.4431
603 1 1 -0.834 0.271 17.4051 84.2948
604 1 1 -0.834 14.7028 3.81477 46.7004
605 1 1 -0.834 19.9156 18.8724 69.3543
606 1 1 -0.834 22.9523 8.89023 51.6873
607 1 1 -0.834 12.7485 17.8063 51.0287
608 1 1 -0.834 13.059 0.429612 41.1858
609 1 1 -0.834 12.3408 10.5033 62.8251
610 1 1 -0.834 22.442 12.7454 38.427
611 1 1 -0.834 3.02121 2.1029 61.731
612 1 1 -0.834 19.1241 8.17174 13.685
613 1 1 -0.834 4.41214 7.86588 48.4323
614 1 1 -0.834 12.0874 2.28987 53.0487
615 1 1 -0.834 3.1406 24.1534 78.0979
616 1 1 -0.834 23.1417 16.9173 0.81209
617 1 1 -0.834 1.39472 14.4619 75.6988
618 1 1 -0.834 17.7712 11.098 80.8403
619 1 1 -0.834 19.8329 9.24828 52.7672
620 1 1 -0.834 13.5986 5.82564 1.55261
621 1 1 -0.834 4.08568 9.95688 46.6465
622 1 1 -0.834 1.43319 13.9552 84.2573
623 1 1 -0.834 6.97432 4.81611 79.9376
624 1 1 -0.834 15.6139 5.6792 79.1761
625 1 1 -0.834 12.7521 1.68466 71.6028
626 1 1 -0.834 9.88438 21.4313 60.6418
627 1 1 -0.834 21.3479 11.0988 18.2621
628 1 1 -0.834 24.2633 5.07945 59.0673
629 1 1 -0.834 16.5484 23.5 24.1659
630 1 1 -0.834 19.6581 12.3744 13.8767
631 1 1 -0.834 15.0538 9.61816 48.8
632 1 1 -0.834 13.1002 6.27222 80.5378
633 1 1 -0.834 13.3643 20.0404 39.3923
634 1 1 -0.834 17.3664 7.04711 61.9628
635 1 1 -0.834 19.1171 17.8808 80.7291
636 1 1 -0.834 20.1645 16.0834 61.4917
637 1 1 -0.834 4.24143 23.6189 53.9777
638 1 1 -0.834 6.86696 4.78435 77.0047
639 1 1 -0.834 21.1029 21.7653 7.99445
640 1 1 -0.834 4.16537 12.8702 51.6884
641 1 1 -0.834 2.57644 12.3392 47.7439
642 1 1 -0.834 16.8304 18.9979 64.214
643 1 1 -0.834 4.82473 14.4698 54.3614
644 1 1 -0.834 6.98498 20.4589 18.4106
645 1 1 -0.834 0.320934 11.9704 49.1606
646 1 1 -0.834 1.0498 19.4576 1.21291
647 1 1 -0.834 2.38195 17.6833 47.803
648 1 1 -0.834 16.5799 8.00331 51.5905
649 1 1 -0.834 12.8761 11.5241 33.2608
650 1 1 -0.834 11.9721 12.7319 64.6898
651 1 1 -0.834 16.5201 4.57956 20.0575
652 1 1 -0.834 15.9448 17.4925 76.7944
653 1 1 -0.834 19.4012 9.91118 62.5514
654 1 1 -0.834 0.517303 15.5312 78.0553
655 1 1 -0.834 17.8127 2.0857 44.217
656 1 1 -0.834 18.6711 23.3009 50.7541
657 1 1 -0.834 19.9351 3.84893 72.4452
658 1 1 -0.834 18.3892 13.8053 50.908
659 1 1 -0.834 4.28138 10.4535 43.7669
660 1 1 -0.834 7.18171 23.8382 74.446
661 1 1 -0.834 7.54758 11.7785 55.2501
662 1 1 -0.834 3.12574 10.188 49.702
663 1 1 -0.834 5.5349 20.6121 58.9569
664 1 1 -0.834 23.4807 21.3133 6.37901
665 1 1 -0.834 1.12316 6.17496 66.3377
666 1 1 -0.834 10.958 10.5733 44.9452
667 1 1 -0.834 18.9716 18.801 62.3097
668 1 1 -0.834 0.514557 20.1399 4.47326
669 1 1 -0.834 5.41742 9.9479 74.2177
670 1 1 -0.834 11.0164 4.50551 69.928
671 1 1 -0.834 21.5112 4.77564 75.5036
672 1 1 -0.834 7.27172 5.41165 65.1868
673 1 1 -0.834 12.3546 17.6427 54.4097
674 1 1 -0.834 3.73547 12.4859 24.4105
675 1 1 -0.834 24.2395 2.35761 59.3134
676 1 1 -0.834 22.9048 7.5288 66.7409
677 1 1 -0.834 6.43609 1.7147 9.25585
678 1 1 -0.834 8.46227 8.608 48.3198
679 1 1 -0.834 22.2809 0.308861 48.1827
680 1 1 -0.834 4.38905 3.96865 48.1268
681 1 1 -0.834 22.5128 5.44552 37.6513
682 1 1 -0.834 11.0298 0.685697 73.3029
683 1 1 -0.834 16.3091 12.8414 62.8691
684 1 1 -0.834 12.0552 8.57646 55.6473
685 1 1 -0.834 8.55081 7.07808 58.8825
686 1 1 -0.834 11.0141 12.6596 5.81461
687 1 1 -0.834 19.4352 8.57484 44.9558
688 1 1 -0.834 4.58759 22.0696 62.7558
689 1 1 -0.834 9.04476 9.3265 55.2519
690 1 1 -0.834 15.1584 22.7488 21.7616
691 1 1 -0.834 24.3782 1.55808 55.1672
692 1 1 -0.834 6.0566 14.847 51.2165
693 1 1 -0.834 24.033 1.67443 72.011
694 1 1 -0.834 8.59879 15.4071 61.4641
695 1 1 -0.834 21.8883 15.8742 52.386
696 1 1 -0.834 3.32885 14.9591 60.7319
697 1 1 -0.834 9.49651 6.33706 55.1727
698 1 1 -0.834 15.1489 7.10081 82.2867
699 1 1 -0.834 2.21429 15.557 17.331
700 1 1 -0.834 8.79071 18.8134 46.2466
701 1 1 -0.834 22.3132 23.1695 4.25865
702 1 1 -0.834 15.0141 16.2775 45.4827
703 1 1 -0.834 19.7644 21.8717 26.0195
704 1 1 -0.834 15.9865 9.59425 62.9916
705 1 1 -0.834 2.22542 23.5763 56.2968
706 1 1 -0.834 16.0971 9.52424 75.0773
707 1 1 -0.834 14.1057 8.59792 3.44973
708 1 1 -0.834 20.4497 1.90144 78.9385
709 1 1 -0.834 7.37621 6.95496 53.3815
710 1 1 -0.834 0.147862 18.9007 48.5342
711 1 1 -0.834 1.3035 2.89581 75.0336
712 1 1 -0.834 17.5873 10.8635 44.3704
713 1 1 -0.834 8.77691 10.4648 5.69586
714 1 1 -0.834 6.43498 23.5093 71.5367
715 1 1 -0.834 22.0184 17.7977 55.2709
716 1 1 -0.834 1.90086 21.5375 74.4915
717 1 1 -0.834 4.66365 7.48655 43.5961
718 1 1 -0.834 17.3174 10.9063 10.7761
719 1 1 -0.834 22.6097 15.2707 48.3174
720 1 1 -0.834 23.9438 22.2411 31.7752
721 1 1 -0.834 19.2495 6.16501 15.5884
722 1 1 -0.834 12.6282 20.3854 65.9817
723 1 1 -0.834 12.4182 23.0265 82.4546
724 1 1 -0.834 2.46453 20.7936 43.695
725 1 1 -0.834 10.73 15.1826 75.412
726 1 1 -0.834 1.17978 4.71129 9.87128
727 1 1 -0.834 9.5271 1.10825 47.8837
728 1 1 -0.834 14.6554 20.53 50.1047
729 1 1 -0.834 8.19305 1.58427 58.9338
730 1 1 -0.834 13.6357 4.72734 69.74
731 1 1 -0.834 19.9894 12.3439 72.5195
732 1 1 -0.834 20.017 22.5606 72.6816
733 1 1 -0.834 11.663 18.8679 80.7603
734 1 1 -0.834 4.82512 22.9849 68.0036
735 1 1 -0.834 11.2041 10.2036 87.0292
736 1 1 -0.834 22.6638 22.9242 53.5792
737 1 1 -0.834 19.868 19.9719 78.8266
738 1 1 -0.834 4.4768 13.3065 78.4575
739 1 1 -0.834 24.1884 13.2055 40.7044
740 1 1 -0.834 22.2262 8.22478 10.8767
741 1 1 -0.834 5.6396 6.57927 58.7742
742 1 1 -0.834 22.082 9.07891 14.135
743 1 1 -0.834 16.9014 18.7555 51.7228
744 1 1 -0.834 12.5381 17.103 38.4075
745 1 1 -0.834 4.73711 17.2667 86.5108
746 1 1 -0.834 22.1603 10.8773 61.5092
747 1 1 -0.834 4.23874 3.63018 66.5674
748 1 1 -0.834 16.5364 5.5075 76.5466
749 1 1 -0.834 0.127419 3.37935 67.0333
750 1 1 -0.834 14.6735 13.3381 65.8229
751 1 1 -0.834 6.17504 1.22781 64.9827
752 1 1 -0.834 9.97538 7.18538 46.507
753 1 1 -0.834 18.9254 13.5839 62.1055
754 1 1 -0.834 23.6958 20.9051 73.218
755 1 1 -0.834 18.862 24.0019 79.9732
756 1 1 -0.834 8.81369 23.4704 76.669
757 1 1 -0.834 5.6866 2.22403 81.4792
758 1 1 -0.834 20.9207 15.1643 69.7556
759 1 1 -0.834 13.9979 15.215 76.8019
760 1 1 -0.834 7.61043 8.21236 26.6027
761 1 1 -0.834 3.07174 17.809 60.9164
762 1 1 -0.834 11.7099 21.3109 78.4697
763 1 1 -0.834 9.08037 8.94109 32.3457
764 1 1 -0.834 8.60881 21.5489 42.4582
765 1 1 -0.834 20.331 20.0394 29.768
766 1 1 -0.834 14.1632 0.349163 51.7118
767 1 1 -0.834 14.7963 13.6503 9.80994
768 1 1 -0.834 0.803163 14.9202 49.0146
769 1 1 -0.834 21.1862 4.69169 50.0929