 DBCSR| CPU Multiplication driver                                           XSMM (U)
 DBCSR| Multrec recursion limit                                              512 (U)
 DBCSR| Multiplication stack size                                           1000 (D)
 DBCSR| Maximum elements for images                                    UNLIMITED (U)
 DBCSR| Multiplicative factor virtual images                                   1 (U)
 DBCSR| Use multiplication densification                                       T (D)
 DBCSR| Multiplication size stacks                                             3 (U)
 DBCSR| Use memory pool for CPU allocation                                     F (U)
 DBCSR| Number of 3D layers                                               SINGLE (U)
 DBCSR| Use MPI memory allocation                                              F (U)
 DBCSR| Use RMA algorithm                                                      F (U)
 DBCSR| Use Communication thread                                               T (U)
 DBCSR| Communication thread load                                             87 (D)
 DBCSR| MPI: My process id                                                     0
 DBCSR| MPI: Number of processes                                              24
 DBCSR| OMP: Current number of threads                                         1
 DBCSR| OMP: Max number of threads                                             1
 DBCSR| Split modifier for TAS multiplication algorithm                  1.0E+00 (U)


  **** **** ******  **  PROGRAM STARTED AT               2025-01-28 14:24:15.756
 ***** ** ***  *** **   PROGRAM STARTED ON                     c0139.ten.osc.edu
 **    ****   ******    PROGRAM STARTED BY                               xiutinc
 ***** **    ** ** **   PROGRAM PROCESS ID                                367571
  **** **  *******  **  PROGRAM STARTED IN /fs/scratch/PAS2536/xiutinc/386233.ad
                                           l02_01_02_propanol

 CP2K| version string:                                       CP2K version 2023.2
 CP2K| source code revision number:                                  git:65cca6c
 CP2K| cp2kflags: omp libint fftw3 libxc parallel scalapack xsmm plumed2 mkl sir
 CP2K|            ius
 CP2K| is freely available from                            https://www.cp2k.org/
 CP2K| Program compiled at                          Mon Oct 14 13:01:09 EDT 2024
 CP2K| Program compiled on                             cardinal-rw02.ten.osc.edu
 CP2K| Program compiled for                       linux-rhel9-sapphirerapids-gcc
 CP2K| Data directory path    /apps/spack/0.21/cardinal/linux-rhel9-sapphirerapi
 CP2K| Input file name                                             intE04_aq.inp

 GLOBAL| Force Environment number                                              1
 GLOBAL| Basis set file name                                          BASIS_file
 GLOBAL| Potential file name                                     POTENTIALS_file
 GLOBAL| MM Potential file name                                     MM_POTENTIAL
 GLOBAL| Coordinate file name                                    ./intE04_aq.xyz
 GLOBAL| Method name                                                        CP2K
 GLOBAL| Project name                                                  intE04_aq
 GLOBAL| Run type                                                        GEO_OPT
 GLOBAL| FFT library                                                       FFTW3
 GLOBAL| Diagonalization library                                       ScaLAPACK
 GLOBAL| DGEMM library                                                      BLAS
 GLOBAL| Orthonormality check for eigenvectors                          DISABLED
 GLOBAL| Matrix multiplication library                                 ScaLAPACK
 GLOBAL| All-to-all communication in single precision                          F
 GLOBAL| FFTs using library dependent lengths                                  F
 GLOBAL| Grid backend                                                       AUTO
 GLOBAL| Global print level                                                  LOW
 GLOBAL| MPI I/O enabled                                                       T
 GLOBAL| Total number of message passing processes                            24
 GLOBAL| Number of threads for this process                                    1
 GLOBAL| This output is from process                                           0
 GLOBAL| Stack size for threads created by OpenMP (OMP_STACKSIZE)        default
 GLOBAL| CPU model name                            Intel(R) Xeon(R) CPU Max 9470
 GLOBAL| CPUID                                                              1003

 MEMORY| system memory details [Kb]
 MEMORY|                        rank 0           min           max       average
 MEMORY| MemTotal            662060572     662060572     662060572     662060572
 MEMORY| MemFree             607018412     607018412     607018412     607018412
 MEMORY| Buffers                 89540         89540         89540         89540
 MEMORY| Cached               26777168      26777168      26777168      26777168
 MEMORY| Slab                  1147736       1147736       1147736       1147736
 MEMORY| SReclaimable           373696        373696        373696        373696
 MEMORY| MemLikelyFree       634258816     634258816     634258816     634258816


 *******************************************************************************
 *******************************************************************************
 **                                                                           **
 **     #####                         ##              ##                      **
 **    ##   ##            ##          ##              ##                      **
 **   ##     ##                       ##            ######                    **
 **   ##     ##  ##   ##  ##   #####  ##  ##   ####   ##    #####    #####    **
 **   ##     ##  ##   ##  ##  ##      ## ##   ##      ##   ##   ##  ##   ##   **
 **   ##  ## ##  ##   ##  ##  ##      ####     ###    ##   ######   ######    **
 **    ##  ###   ##   ##  ##  ##      ## ##      ##   ##   ##       ##        **
 **     #######   #####   ##   #####  ##  ##  ####    ##    #####   ##        **
 **           ##                                                    ##        **
 **                                                                           **
 **                                                ... make the atoms dance   **
 **                                                                           **
 **            Copyright (C) by CP2K developers group (2000-2023)             **
 **                      J. Chem. Phys. 152, 194103 (2020)                    **
 **                                                                           **
 *******************************************************************************


 TOTAL NUMBERS AND MAXIMUM NUMBERS

  Total number of            - Atomic kinds:                                   5
                             - Atoms:                                        651
                             - Shell sets:                                   651
                             - Shells:                                      3154
                             - Primitive Cartesian functions:               3066
                             - Cartesian basis functions:                   8663
                             - Spherical basis functions:                   8060

  Maximum angular momentum of- Orbital basis functions:                        3
                             - Local part of the GTH pseudopotential:          2
                             - Non-local part of the GTH pseudopotential:      3


 SCF PARAMETERS         Density guess:                                   RESTART
                        --------------------------------------------------------
                        max_scf:                                             500
                        max_scf_history:                                       0
                        max_diis:                                              4
                        --------------------------------------------------------
                        eps_scf:                                        1.00E-06
                        eps_scf_history:                                0.00E+00
                        eps_diis:                                       1.00E-01
                        eps_eigval:                                     1.00E-05
                        --------------------------------------------------------
                        level_shift [a.u.]:                             0.000000
                        --------------------------------------------------------
                        Outer loop SCF in use 
                        No variables optimised in outer loop
                        eps_scf                                         1.00E-06
                        max_scf                                               50
                        No outer loop optimization
                        step_size                                       5.00E-01

 BFGS| Use rational function optimization for step estimation:                NO
 BFGS| Use model Hessian for initial guess:                                  YES
 BFGS| Restart Hessian:                                                       NO
 BFGS| Trust radius:                                                       0.472

 *******************************************************************************
 ***                     STARTING GEOMETRY OPTIMIZATION                      ***
 ***                                   BFGS                                  ***
 *******************************************************************************

 Number of electrons:                                                       3256
 Number of occupied orbitals:                                               1628
 Number of molecular orbitals:                                              1628

 Number of orbital functions:                                               8060
 Number of independent orbital functions:                                   8060

 Extrapolation method: initial_guess

 *** WARNING in qs_initial_guess.F:305 :: User requested to restart the   ***
 *** wavefunction from the file named: intE04_aq-RESTART.wfn. This file   ***
 *** does not exist. Please check the existence of the file or change     ***
 *** properly the value of the keyword WFN_RESTART_FILE_NAME. Calculation ***
 *** continues using ATOMIC GUESS.                                        ***



 SCF WAVEFUNCTION OPTIMIZATION

  ----------------------------------- OT ---------------------------------------
  Minimizer      : CG                  : conjugate gradient
  Preconditioner : FULL_ALL            : diagonalization, state selective
  Precond_solver : DEFAULT
  Line search    : 2PNT                : 2 energies, one gradient
  stepsize       :    0.15000000                  energy_gap     :    0.00100000
  eps_taylor     :   0.10000E-15                  max_taylor     :             4
  ----------------------------------- OT ---------------------------------------

  Step     Update method      Time    Convergence         Total energy    Change
  ------------------------------------------------------------------------------
     1 OT CG       0.15E+00   22.4     0.01616945     -7097.0983933511 -7.10E+03
     2 OT LS       0.68E-01    2.4                    -7039.9855791809
     3 OT CG       0.68E-01    5.6     0.07396635     -7015.1135678007  8.20E+01
     4 OT LS       0.31E-01    2.4                    -6601.0556176448
     5 OT CG       0.31E-01    5.6     0.11809792     -6699.8148454726  3.15E+02
     6 OT LS       0.16E-01    2.4                    -6844.1379455580
     7 OT CG       0.16E-01    5.6     0.05005877     -6998.5522397132 -2.99E+02
     8 OT LS       0.95E-02    2.4                    -7080.6739802835
     9 OT CG       0.95E-02    5.6     0.01602033     -7101.0868328365 -1.03E+02
    10 OT LS       0.22E-01    2.4                    -7124.0970374477
    11 OT CG       0.22E-01    5.6     0.01602186     -7132.6549091558 -3.16E+01
    12 OT LS       0.31E-01    2.4                    -7173.9923364194
    13 OT CG       0.31E-01    5.6     0.01279043     -7180.2335579272 -4.76E+01
    14 OT LS       0.19E-01    2.4                    -7191.9772989360
    15 OT CG       0.19E-01    5.6     0.01083668     -7197.8615769108 -1.76E+01
    16 OT LS       0.39E-01    2.4                    -7218.6676551411
    17 OT CG       0.39E-01    5.6     0.01302033     -7220.5538225896 -2.27E+01
    18 OT LS       0.59E-02    2.4                    -7132.5218197287
    19 OT CG       0.59E-02    5.6     0.01370870     -7224.7049052278 -4.15E+00
    20 OT LS       0.10E-01    2.5                    -7235.1788015303
    21 OT CG       0.10E-01    5.6     0.00531139     -7238.3212614022 -1.36E+01
    22 OT LS       0.41E-01    2.4                    -7241.8823334757
    23 OT CG       0.41E-01    5.6     0.00492899     -7247.4963690003 -9.18E+00
    24 OT LS       0.47E-01    2.4                    -7255.9256791882
    25 OT CG       0.47E-01    5.6     0.00489957     -7256.3242456495 -8.83E+00
    26 OT LS       0.29E-01    2.4                    -7259.6317923510
    27 OT CG       0.29E-01    5.6     0.00409152     -7262.2728062890 -5.95E+00
    28 OT LS       0.48E-01    2.4                    -7266.8347315973
    29 OT CG       0.48E-01    5.6     0.00325670     -7267.7446046938 -5.47E+00
    30 OT LS       0.53E-01    2.4                    -7271.4286029059
    31 OT CG       0.53E-01    5.6     0.00346676     -7271.5266784347 -3.78E+00
    32 OT LS       0.32E-01    2.4                    -7273.2983685801
    33 OT CG       0.32E-01    5.6     0.00248133     -7274.6151244062 -3.09E+00
    34 OT LS       0.85E-01    2.4                    -7276.7765444089
    35 OT CG       0.85E-01    5.6     0.00335513     -7277.9640242174 -3.35E+00
    36 OT LS       0.37E-01    2.4                    -7276.2309948199
    37 OT CG       0.37E-01    5.6     0.00288662     -7280.0664992063 -2.10E+00
    38 OT LS       0.65E-01    2.4                    -7282.6585313722
    39 OT CG       0.65E-01    5.6     0.00317026     -7282.8795971238 -2.81E+00
    40 OT LS       0.42E-01    2.4                    -7284.3552130078
    41 OT CG       0.42E-01    5.6     0.00238510     -7284.9615269736 -2.08E+00
    42 OT LS       0.57E-01    2.4                    -7286.9366006588
    43 OT CG       0.57E-01    5.6     0.00238168     -7287.1512602309 -2.19E+00
    44 OT LS       0.45E-01    2.4                    -7288.8746051554
    45 OT CG       0.45E-01    5.6     0.00199636     -7289.0444086134 -1.89E+00
    46 OT LS       0.58E-01    2.4                    -7290.4281491577
    47 OT CG       0.58E-01    5.6     0.00187213     -7290.5042205987 -1.46E+00
    48 OT LS       0.49E-01    2.4                    -7291.6143121789
    49 OT CG       0.49E-01    5.6     0.00181072     -7291.6229975333 -1.12E+00
    50 OT LS       0.68E-01    2.5                    -7293.0314977578
    51 OT CG       0.68E-01    5.6     0.00200333     -7293.0912869807 -1.47E+00
    52 OT LS       0.53E-01    2.4                    -7294.2047589194
    53 OT CG       0.53E-01    5.6     0.00215939     -7294.3151377864 -1.22E+00
    54 OT LS       0.51E-01    2.4                    -7295.8690982531
    55 OT CG       0.51E-01    5.6     0.00193612     -7295.8632443952 -1.55E+00
    56 OT LS       0.71E-01    2.4                    -7297.5823128166
    57 OT CG       0.71E-01    5.6     0.00204734     -7297.6634969196 -1.80E+00
    58 OT LS       0.47E-01    2.5                    -7298.4675072008
    59 OT CG       0.47E-01    5.6     0.00208944     -7298.7698649081 -1.11E+00
    60 OT LS       0.49E-01    2.4                    -7300.1825773542
    61 OT CG       0.49E-01    5.6     0.00166126     -7300.1961551749 -1.43E+00
    62 OT LS       0.71E-01    2.5                    -7301.4489576111
    63 OT CG       0.71E-01    5.6     0.00151188     -7301.5317262710 -1.34E+00
    64 OT LS       0.67E-01    2.4                    -7302.4223011641
    65 OT CG       0.67E-01    5.6     0.00179772     -7302.4251027188 -8.93E-01
    66 OT LS       0.63E-01    2.4                    -7303.7646131518
    67 OT CG       0.63E-01    5.6     0.00151262     -7303.7588476896 -1.33E+00
    68 OT LS       0.75E-01    2.4                    -7304.9226698241
    69 OT CG       0.75E-01    6.5     0.00135946     -7304.9367704925 -1.18E+00
    70 OT LS       0.81E-01    2.4                    -7305.8535861014
    71 OT CG       0.81E-01    5.6     0.00166443     -7305.8597190416 -9.23E-01
    72 OT LS       0.60E-01    2.5                    -7306.8368561023
    73 OT CG       0.60E-01    5.6     0.00135095     -7306.9308338423 -1.07E+00
    74 OT LS       0.93E-01    2.4                    -7307.9253792031
    75 OT CG       0.93E-01    5.6     0.00135277     -7308.0299744969 -1.10E+00
    76 OT LS       0.80E-01    2.4                    -7308.8859891493
    77 OT CG       0.80E-01    5.6     0.00142603     -7308.9050999287 -8.75E-01
    78 OT LS       0.67E-01    2.4                    -7309.7722162014
    79 OT CG       0.67E-01    5.6     0.00120909     -7309.7954145569 -8.90E-01
    80 OT LS       0.80E-01    2.4                    -7310.5631036778
    81 OT CG       0.80E-01    5.6     0.00108514     -7310.5800514242 -7.85E-01
    82 OT LS       0.10E+00    2.4                    -7311.3026434783
    83 OT CG       0.10E+00    5.6     0.00128231     -7311.3285023257 -7.48E-01
    84 OT LS       0.69E-01    2.4                    -7311.9089516852
    85 OT CG       0.69E-01    5.6     0.00111164     -7312.0477057375 -7.19E-01
    86 OT LS       0.87E-01    2.4                    -7312.7280540612
    87 OT CG       0.87E-01    5.6     0.00108395     -7312.7566371624 -7.09E-01
    88 OT LS       0.76E-01    2.4                    -7313.3208668481
    89 OT CG       0.76E-01    5.6     0.00105467     -7313.3359983353 -5.79E-01
    90 OT LS       0.94E-01    2.4                    -7313.9910885320
    91 OT CG       0.94E-01    5.6     0.00101003     -7314.0204485322 -6.84E-01
    92 OT LS       0.78E-01    2.4                    -7314.5342029785
    93 OT CG       0.78E-01    5.6     0.00099451     -7314.5569490310 -5.37E-01
    94 OT LS       0.84E-01    2.4                    -7315.0976564222
    95 OT CG       0.84E-01    5.6     0.00096411     -7315.0989836608 -5.42E-01
    96 OT LS       0.86E-01    2.4                    -7315.6131676814
    97 OT CG       0.86E-01    5.6     0.00095799     -7315.6136458116 -5.15E-01
    98 OT LS       0.78E-01    2.4                    -7316.0855460794
    99 OT CG       0.78E-01    5.6     0.00085867     -7316.0890965244 -4.75E-01
   100 OT LS       0.88E-01    2.4                    -7316.5140268712
   101 OT CG       0.88E-01    5.6     0.00088828     -7316.5183729541 -4.29E-01
   102 OT LS       0.82E-01    2.5                    -7316.9366454860
   103 OT CG       0.82E-01    5.6     0.00087430     -7316.9391845446 -4.21E-01
   104 OT LS       0.84E-01    2.4                    -7317.3564215992
   105 OT CG       0.84E-01    5.6     0.00081933     -7317.3566223523 -4.17E-01
   106 OT LS       0.82E-01    2.5                    -7317.7201244151
   107 OT CG       0.82E-01    5.6     0.00078273     -7317.7203151174 -3.64E-01
   108 OT LS       0.89E-01    2.4                    -7318.0755221681
   109 OT CG       0.89E-01    5.6     0.00079842     -7318.0774876555 -3.57E-01
   110 OT LS       0.84E-01    2.4                    -7318.4233621371
   111 OT CG       0.84E-01    5.6     0.00078388     -7318.4246989258 -3.47E-01
   112 OT LS       0.80E-01    2.4                    -7318.7486852874
   113 OT CG       0.80E-01    5.6     0.00072286     -7318.7491403302 -3.24E-01
   114 OT LS       0.89E-01    2.4                    -7319.0539041278
   115 OT CG       0.89E-01    5.6     0.00071660     -7319.0567604139 -3.08E-01
   116 OT LS       0.86E-01    2.4                    -7319.3442701586
   117 OT CG       0.86E-01    5.6     0.00071969     -7319.3448051436 -2.88E-01
   118 OT LS       0.84E-01    2.4                    -7319.6302998726
   119 OT CG       0.84E-01    5.6     0.00068802     -7319.6303644143 -2.86E-01
   120 OT LS       0.83E-01    2.4                    -7319.8906714593
   121 OT CG       0.83E-01    5.6     0.00066222     -7319.8906893306 -2.60E-01
   122 OT LS       0.89E-01    2.4                    -7320.1450859634
   123 OT CG       0.89E-01    5.6     0.00065008     -7320.1457698476 -2.55E-01
   124 OT LS       0.88E-01    2.4                    -7320.3879794283
   125 OT CG       0.88E-01    5.6     0.00065054     -7320.3879978703 -2.42E-01
   126 OT LS       0.83E-01    2.4                    -7320.6168603270
   127 OT CG       0.83E-01    5.6     0.00061457     -7320.6175812135 -2.30E-01
   128 OT LS       0.88E-01    2.4                    -7320.8351177471
   129 OT CG       0.88E-01    5.6     0.00060106     -7320.8358091595 -2.18E-01
   130 OT LS       0.89E-01    2.4                    -7321.0466463967
   131 OT CG       0.89E-01    5.6     0.00059382     -7321.0466535828 -2.11E-01
   132 OT LS       0.88E-01    2.5                    -7321.2486971426
   133 OT CG       0.88E-01    5.6     0.00058714     -7321.2487354328 -2.02E-01
   134 OT LS       0.85E-01    2.4                    -7321.4398047632
   135 OT CG       0.85E-01    5.6     0.00056084     -7321.4400027639 -1.91E-01
   136 OT LS       0.87E-01    2.4                    -7321.6197430630
   137 OT CG       0.87E-01    5.6     0.00054716     -7321.6198678864 -1.80E-01
   138 OT LS       0.89E-01    2.4                    -7321.7956188042
   139 OT CG       0.89E-01    5.6     0.00053974     -7321.7957245625 -1.76E-01
   140 OT LS       0.89E-01    2.4                    -7321.9646797061
   141 OT CG       0.89E-01    5.6     0.00053293     -7321.9646963128 -1.69E-01
   142 OT LS       0.86E-01    2.4                    -7322.1249998280
   143 OT CG       0.86E-01    5.6     0.00051159     -7322.1251066406 -1.60E-01
   144 OT LS       0.89E-01    2.4                    -7322.2775062998
   145 OT CG       0.89E-01    5.6     0.00049868     -7322.2776323194 -1.53E-01
   146 OT LS       0.90E-01    2.4                    -7322.4241759270
   147 OT CG       0.90E-01    5.6     0.00049368     -7322.4241887975 -1.47E-01
   148 OT LS       0.89E-01    2.4                    -7322.5661187533
   149 OT CG       0.89E-01    5.6     0.00048772     -7322.5661347409 -1.42E-01
   150 OT LS       0.86E-01    2.4                    -7322.7002910107
   151 OT CG       0.86E-01    5.6     0.00046987     -7322.7004173005 -1.34E-01
   152 OT LS       0.89E-01    2.4                    -7322.8290691811
   153 OT CG       0.89E-01    5.6     0.00045766     -7322.8291945452 -1.29E-01
   154 OT LS       0.90E-01    2.5                    -7322.9527450627
   155 OT CG       0.90E-01    5.6     0.00045083     -7322.9527571582 -1.24E-01
   156 OT LS       0.90E-01    2.5                    -7323.0732339490
   157 OT CG       0.90E-01    5.6     0.00044478     -7323.0732369376 -1.20E-01
   158 OT LS       0.89E-01    2.4                    -7323.1882003557
   159 OT CG       0.89E-01    5.6     0.00043349     -7323.1882419569 -1.15E-01
   160 OT LS       0.89E-01    2.4                    -7323.2973208889
   161 OT CG       0.89E-01    5.6     0.00042295     -7323.2973212012 -1.09E-01
   162 OT LS       0.90E-01    2.4                    -7323.4026301587
   163 OT CG       0.90E-01    5.6     0.00041547     -7323.4026488220 -1.05E-01
   164 OT LS       0.90E-01    2.4                    -7323.5048027647
   165 OT CG       0.90E-01    5.6     0.00040862     -7323.5048052077 -1.02E-01
   166 OT LS       0.90E-01    2.4                    -7323.6028917439
   167 OT CG       0.90E-01    5.6     0.00040044     -7323.6028965576 -9.81E-02
   168 OT LS       0.89E-01    2.4                    -7323.6960590457
   169 OT CG       0.89E-01    5.6     0.00039016     -7323.6960704119 -9.32E-02
   170 OT LS       0.90E-01    2.4                    -7323.7860428229
   171 OT CG       0.90E-01    5.6     0.00038233     -7323.7860682633 -9.00E-02
   172 OT LS       0.91E-01    2.4                    -7323.8735159575
   173 OT CG       0.91E-01    5.6     0.00037544     -7323.8735278429 -8.75E-02
   174 OT LS       0.91E-01    2.4                    -7323.9578598206
   175 OT CG       0.91E-01    5.6     0.00036926     -7323.9578598161 -8.43E-02
   176 OT LS       0.90E-01    2.4                    -7324.0381033139
   177 OT CG       0.90E-01    5.6     0.00036292     -7324.0381243672 -8.03E-02
   178 OT LS       0.89E-01    2.4                    -7324.1153220759
   179 OT CG       0.89E-01    5.6     0.00035506     -7324.1153235826 -7.72E-02
   180 OT LS       0.91E-01    2.4                    -7324.1905180187
   181 OT CG       0.91E-01    5.6     0.00034867     -7324.1905409392 -7.52E-02
   182 OT LS       0.91E-01    2.4                    -7324.2633510758
   183 OT CG       0.91E-01    5.6     0.00034275     -7324.2633521750 -7.28E-02
   184 OT LS       0.91E-01    2.5                    -7324.3331655407
   185 OT CG       0.91E-01    5.6     0.00033639     -7324.3331695519 -6.98E-02
   186 OT LS       0.91E-01    2.4                    -7324.4005684514
   187 OT CG       0.91E-01    5.6     0.00032897     -7324.4005687854 -6.74E-02
   188 OT LS       0.92E-01    2.4                    -7324.4657026212
   189 OT CG       0.92E-01    5.6     0.00032356     -7324.4657097135 -6.51E-02
   190 OT LS       0.91E-01    2.4                    -7324.5282096975
   191 OT CG       0.91E-01    5.6     0.00031828     -7324.5282138057 -6.25E-02
   192 OT LS       0.91E-01    2.5                    -7324.5885720121
   193 OT CG       0.91E-01    5.6     0.00031207     -7324.5885722327 -6.04E-02
   194 OT LS       0.91E-01    2.4                    -7324.6467449004
   195 OT CG       0.91E-01    5.6     0.00030553     -7324.6467453200 -5.82E-02
   196 OT LS       0.91E-01    2.4                    -7324.7027151239
   197 OT CG       0.91E-01    5.6     0.00029988     -7324.7027159152 -5.60E-02
   198 OT LS       0.92E-01    2.4                    -7324.7568589818
   199 OT CG       0.92E-01    5.6     0.00029483     -7324.7568599528 -5.41E-02
   200 OT LS       0.92E-01    2.4                    -7324.8091552411
   201 OT CG       0.92E-01    5.6     0.00028975     -7324.8091552685 -5.23E-02
   202 OT LS       0.92E-01    2.4                    -7324.8596347410
   203 OT CG       0.92E-01    5.6     0.00028443     -7324.8596347569 -5.05E-02
   204 OT LS       0.91E-01    2.4                    -7324.9081667508
   205 OT CG       0.91E-01    5.6     0.00027959     -7324.9081669694 -4.85E-02
   206 OT LS       0.92E-01    2.4                    -7324.9554692333
   207 OT CG       0.92E-01    5.6     0.00027455     -7324.9554728091 -4.73E-02
   208 OT LS       0.92E-01    2.4                    -7325.0012187896
   209 OT CG       0.92E-01    5.6     0.00027051     -7325.0012191743 -4.57E-02
   210 OT LS       0.92E-01    2.4                    -7325.0452709861
   211 OT CG       0.92E-01    5.6     0.00026608     -7325.0452738568 -4.41E-02
   212 OT LS       0.92E-01    2.4                    -7325.0878194552
   213 OT CG       0.92E-01    5.6     0.00026168     -7325.0878195928 -4.25E-02
   214 OT LS       0.92E-01    2.5                    -7325.1291913551
   215 OT CG       0.92E-01    5.6     0.00025697     -7325.1291926193 -4.14E-02
   216 OT LS       0.93E-01    2.4                    -7325.1693029213
   217 OT CG       0.93E-01    5.6     0.00025239     -7325.1693040869 -4.01E-02
   218 OT LS       0.93E-01    2.4                    -7325.2080681811
   219 OT CG       0.93E-01    6.6     0.00024851     -7325.2080682939 -3.88E-02
   220 OT LS       0.92E-01    2.4                    -7325.2453884415
   221 OT CG       0.92E-01    5.6     0.00024449     -7325.2453902259 -3.73E-02
   222 OT LS       0.92E-01    2.5                    -7325.2815471998
   223 OT CG       0.92E-01    5.6     0.00024055     -7325.2815472421 -3.62E-02
   224 OT LS       0.92E-01    2.4                    -7325.3165542797
   225 OT CG       0.92E-01    5.6     0.00023620     -7325.3165542801 -3.50E-02
   226 OT LS       0.93E-01    2.4                    -7325.3506106152
   227 OT CG       0.93E-01    5.6     0.00023233     -7325.3506133050 -3.41E-02
   228 OT LS       0.93E-01    2.4                    -7325.3834633971
   229 OT CG       0.93E-01    5.6     0.00022929     -7325.3834637258 -3.29E-02
   230 OT LS       0.93E-01    2.4                    -7325.4154472089
   231 OT CG       0.93E-01    5.6     0.00022597     -7325.4154472098 -3.20E-02
   232 OT LS       0.93E-01    2.4                    -7325.4464409196
   233 OT CG       0.93E-01    5.6     0.00022268     -7325.4464410627 -3.10E-02
   234 OT LS       0.93E-01    2.4                    -7325.4766934199
   235 OT CG       0.93E-01    5.6     0.00021950     -7325.4766941571 -3.03E-02
   236 OT LS       0.93E-01    2.5                    -7325.5060287732
   237 OT CG       0.93E-01    5.6     0.00021596     -7325.5060289117 -2.93E-02
   238 OT LS       0.94E-01    2.4                    -7325.5346397178
   239 OT CG       0.94E-01    5.6     0.00021326     -7325.5346414450 -2.86E-02
   240 OT LS       0.93E-01    2.4                    -7325.5623350434
   241 OT CG       0.93E-01    5.6     0.00020999     -7325.5623364814 -2.77E-02
   242 OT LS       0.93E-01    2.4                    -7325.5892554154
   243 OT CG       0.93E-01    5.6     0.00020725     -7325.5892555467 -2.69E-02
   244 OT LS       0.93E-01    2.4                    -7325.6154505821
   245 OT CG       0.93E-01    5.6     0.00020393     -7325.6154506171 -2.62E-02
   246 OT LS       0.94E-01    2.4                    -7325.6410284551
   247 OT CG       0.94E-01    5.6     0.00020174     -7325.6410303852 -2.56E-02
   248 OT LS       0.93E-01    2.4                    -7325.6658875202
   249 OT CG       0.93E-01    5.6     0.00019908     -7325.6658886901 -2.49E-02
   250 OT LS       0.93E-01    2.4                    -7325.6899767243
   251 OT CG       0.93E-01    5.6     0.00019619     -7325.6899773219 -2.41E-02
   252 OT LS       0.93E-01    2.4                    -7325.7135665538
   253 OT CG       0.93E-01    5.6     0.00019318     -7325.7135681034 -2.36E-02
   254 OT LS       0.94E-01    2.4                    -7325.7365046370
   255 OT CG       0.94E-01    5.6     0.00019101     -7325.7365048305 -2.29E-02
   256 OT LS       0.93E-01    2.4                    -7325.7588629127
   257 OT CG       0.93E-01    5.6     0.00018812     -7325.7588630767 -2.24E-02
   258 OT LS       0.93E-01    2.4                    -7325.7805504535
   259 OT CG       0.93E-01    5.6     0.00018573     -7325.7805504519 -2.17E-02
   260 OT LS       0.94E-01    2.4                    -7325.8018150395
   261 OT CG       0.94E-01    5.6     0.00018319     -7325.8018157016 -2.13E-02
   262 OT LS       0.94E-01    2.4                    -7325.8224501397
   263 OT CG       0.94E-01    5.6     0.00018176     -7325.8224502616 -2.06E-02
   264 OT LS       0.93E-01    2.4                    -7325.8425512441
   265 OT CG       0.93E-01    5.6     0.00017962     -7325.8425533918 -2.01E-02
   266 OT LS       0.93E-01    2.4                    -7325.8622259963
   267 OT CG       0.93E-01    5.6     0.00017663     -7325.8622260722 -1.97E-02
   268 OT LS       0.95E-01    2.4                    -7325.8816589231
   269 OT CG       0.95E-01    5.6     0.00017460     -7325.8816678865 -1.94E-02
   270 OT LS       0.94E-01    2.4                    -7325.9005114197
   271 OT CG       0.94E-01    5.6     0.00017292     -7325.9005126846 -1.88E-02
   272 OT LS       0.94E-01    2.4                    -7325.9189077849
   273 OT CG       0.94E-01    5.6     0.00017126     -7325.9189082033 -1.84E-02
   274 OT LS       0.93E-01    2.4                    -7325.9368205893
   275 OT CG       0.93E-01    5.6     0.00016902     -7325.9368215293 -1.79E-02
   276 OT LS       0.94E-01    2.4                    -7325.9544009093
   277 OT CG       0.94E-01    5.6     0.00016702     -7325.9544019039 -1.76E-02
   278 OT LS       0.94E-01    2.4                    -7325.9716302708
   279 OT CG       0.94E-01    5.6     0.00016504     -7325.9716304888 -1.72E-02
   280 OT LS       0.94E-01    2.4                    -7325.9884824327
   281 OT CG       0.94E-01    5.6     0.00016343     -7325.9884824852 -1.69E-02
   282 OT LS       0.94E-01    2.4                    -7326.0049156622
   283 OT CG       0.94E-01    5.6     0.00016140     -7326.0049161956 -1.64E-02
   284 OT LS       0.94E-01    2.4                    -7326.0209421131
   285 OT CG       0.94E-01    5.6     0.00015986     -7326.0209421129 -1.60E-02
   286 OT LS       0.93E-01    2.4                    -7326.0366058234
   287 OT CG       0.93E-01    5.6     0.00015786     -7326.0366060185 -1.57E-02
   288 OT LS       0.94E-01    2.4                    -7326.0519632802
   289 OT CG       0.94E-01    5.6     0.00015553     -7326.0519637204 -1.54E-02
   290 OT LS       0.95E-01    2.4                    -7326.0670877304
   291 OT CG       0.95E-01    5.6     0.00015425     -7326.0670908346 -1.51E-02
   292 OT LS       0.94E-01    2.4                    -7326.0818111617
   293 OT CG       0.94E-01    5.6     0.00015281     -7326.0818128534 -1.47E-02
   294 OT LS       0.94E-01    2.4                    -7326.0962087617
   295 OT CG       0.94E-01    5.6     0.00015172     -7326.0962089296 -1.44E-02
   296 OT LS       0.93E-01    2.5                    -7326.1103124870
   297 OT CG       0.93E-01    5.6     0.00014979     -7326.1103130272 -1.41E-02
   298 OT LS       0.94E-01    2.4                    -7326.1241450632
   299 OT CG       0.94E-01    5.6     0.00014816     -7326.1241455427 -1.38E-02
   300 OT LS       0.94E-01    2.4                    -7326.1377037606
   301 OT CG       0.94E-01    5.6     0.00014654     -7326.1377037996 -1.36E-02
   302 OT LS       0.94E-01    2.4                    -7326.1509702520
   303 OT CG       0.94E-01    5.6     0.00014483     -7326.1509702536 -1.33E-02
   304 OT LS       0.95E-01    2.4                    -7326.1639814857
   305 OT CG       0.95E-01    5.6     0.00014289     -7326.1639817177 -1.30E-02
   306 OT LS       0.95E-01    2.4                    -7326.1766961305
   307 OT CG       0.95E-01    5.6     0.00014174     -7326.1766963026 -1.27E-02
   308 OT LS       0.94E-01    2.4                    -7326.1891348195
   309 OT CG       0.94E-01    5.6     0.00014050     -7326.1891352822 -1.24E-02
   310 OT LS       0.94E-01    2.4                    -7326.2013036636
   311 OT CG       0.94E-01    5.6     0.00013927     -7326.2013038880 -1.22E-02
   312 OT LS       0.94E-01    2.4                    -7326.2132625959
   313 OT CG       0.94E-01    5.6     0.00013786     -7326.2132625988 -1.20E-02
   314 OT LS       0.94E-01    2.4                    -7326.2249423793
   315 OT CG       0.94E-01    5.6     0.00013657     -7326.2249425198 -1.17E-02
   316 OT LS       0.94E-01    2.4                    -7326.2364558719
   317 OT CG       0.94E-01    5.6     0.00013499     -7326.2364560772 -1.15E-02
   318 OT LS       0.95E-01    2.4                    -7326.2478124152
   319 OT CG       0.95E-01    5.6     0.00013352     -7326.2478134501 -1.14E-02
   320 OT LS       0.95E-01    2.4                    -7326.2589493038
   321 OT CG       0.95E-01    5.6     0.00013213     -7326.2589493733 -1.11E-02
   322 OT LS       0.95E-01    2.4                    -7326.2698218993
   323 OT CG       0.95E-01    5.6     0.00013120     -7326.2698220049 -1.09E-02
   324 OT LS       0.94E-01    2.4                    -7326.2804550505
   325 OT CG       0.94E-01    5.6     0.00013006     -7326.2804558156 -1.06E-02
   326 OT LS       0.94E-01    2.4                    -7326.2908693450
   327 OT CG       0.94E-01    5.6     0.00012897     -7326.2908694612 -1.04E-02
   328 OT LS       0.94E-01    2.4                    -7326.3011177297
   329 OT CG       0.94E-01    5.6     0.00012742     -7326.3011177397 -1.02E-02
   330 OT LS       0.94E-01    2.4                    -7326.3111420704
   331 OT CG       0.94E-01    5.6     0.00012607     -7326.3111421100 -1.00E-02
   332 OT LS       0.95E-01    2.4                    -7326.3210109278
   333 OT CG       0.95E-01    5.6     0.00012479     -7326.3210112134 -9.87E-03
   334 OT LS       0.95E-01    2.4                    -7326.3307119238
   335 OT CG       0.95E-01    5.6     0.00012348     -7326.3307120261 -9.70E-03
   336 OT LS       0.95E-01    2.4                    -7326.3402099161
   337 OT CG       0.95E-01    5.6     0.00012228     -7326.3402099166 -9.50E-03
   338 OT LS       0.95E-01    2.4                    -7326.3495170583
   339 OT CG       0.95E-01    5.6     0.00012134     -7326.3495170635 -9.31E-03
   340 OT LS       0.94E-01    2.4                    -7326.3586316983
   341 OT CG       0.94E-01    5.6     0.00012038     -7326.3586319926 -9.11E-03
   342 OT LS       0.94E-01    2.4                    -7326.3675747732
   343 OT CG       0.94E-01    5.6     0.00011953     -7326.3675748663 -8.94E-03
   344 OT LS       0.94E-01    2.4                    -7326.3763828078
   345 OT CG       0.94E-01    5.6     0.00011813     -7326.3763828141 -8.81E-03
   346 OT LS       0.95E-01    2.4                    -7326.3850721032
   347 OT CG       0.95E-01    5.6     0.00011696     -7326.3850729607 -8.69E-03
   348 OT LS       0.95E-01    2.5                    -7326.3935780553
   349 OT CG       0.95E-01    5.6     0.00011597     -7326.3935780832 -8.51E-03
   350 OT LS       0.95E-01    2.4                    -7326.4019328278
   351 OT CG       0.95E-01    5.6     0.00011500     -7326.4019328330 -8.35E-03
   352 OT LS       0.95E-01    2.4                    -7326.4101557328
   353 OT CG       0.95E-01    5.6     0.00011382     -7326.4101557408 -8.22E-03
   354 OT LS       0.95E-01    2.4                    -7326.4182236268
   355 OT CG       0.95E-01    5.6     0.00011281     -7326.4182236466 -8.07E-03
   356 OT LS       0.95E-01    2.4                    -7326.4261426948
   357 OT CG       0.95E-01    5.6     0.00011202     -7326.4261427019 -7.92E-03
   358 OT LS       0.94E-01    2.4                    -7326.4339213428
   359 OT CG       0.94E-01    5.6     0.00011122     -7326.4339214507 -7.78E-03
   360 OT LS       0.94E-01    2.4                    -7326.4415624203
   361 OT CG       0.94E-01    5.6     0.00011003     -7326.4415625169 -7.64E-03
   362 OT LS       0.95E-01    2.4                    -7326.4490849158
   363 OT CG       0.95E-01    5.6     0.00010898     -7326.4490851756 -7.52E-03
   364 OT LS       0.95E-01    2.4                    -7326.4564794756
   365 OT CG       0.95E-01    5.6     0.00010818     -7326.4564795017 -7.39E-03
   366 OT LS       0.94E-01    2.4                    -7326.4637245649
   367 OT CG       0.94E-01    6.1     0.00010726     -7326.4637247965 -7.25E-03
   368 OT LS       0.95E-01    2.4                    -7326.4708616578
   369 OT CG       0.95E-01    5.6     0.00010604     -7326.4708616883 -7.14E-03
   370 OT LS       0.95E-01    2.4                    -7326.4778906453
   371 OT CG       0.95E-01    5.6     0.00010483     -7326.4778910666 -7.03E-03
   372 OT LS       0.96E-01    2.4                    -7326.4847935750
   373 OT CG       0.96E-01    5.6     0.00010411     -7326.4847937250 -6.90E-03
   374 OT LS       0.95E-01    2.4                    -7326.4915225095
   375 OT CG       0.95E-01    5.6     0.00010356     -7326.4915234454 -6.73E-03
   376 OT LS       0.94E-01    2.4                    -7326.4981153306
   377 OT CG       0.94E-01    5.6     0.00010270     -7326.4981159928 -6.59E-03
   378 OT LS       0.94E-01    2.4                    -7326.5046137166
   379 OT CG       0.94E-01    5.6     0.00010159     -7326.5046137494 -6.50E-03
   380 OT LS       0.95E-01    2.4                    -7326.5110590021
   381 OT CG       0.95E-01    5.6     0.00010067     -7326.5110602029 -6.45E-03
   382 OT LS       0.95E-01    2.4                    -7326.5174042999
   383 OT CG       0.95E-01    5.6     0.00009993     -7326.5174043292 -6.34E-03
   384 OT LS       0.95E-01    2.4                    -7326.5236497930
   385 OT CG       0.95E-01    5.6     0.00009924     -7326.5236497978 -6.25E-03
   386 OT LS       0.95E-01    2.4                    -7326.5297947332
   387 OT CG       0.95E-01    5.6     0.00009841     -7326.5297947706 -6.14E-03
   388 OT LS       0.95E-01    2.4                    -7326.5358449531
   389 OT CG       0.95E-01    5.6     0.00009780     -7326.5358449607 -6.05E-03
   390 OT LS       0.94E-01    2.4                    -7326.5417737482
   391 OT CG       0.94E-01    5.6     0.00009719     -7326.5417741012 -5.93E-03
   392 OT LS       0.94E-01    2.4                    -7326.5475939871
   393 OT CG       0.94E-01    5.6     0.00009645     -7326.5475942137 -5.82E-03
   394 OT LS       0.94E-01    2.4                    -7326.5533566310
   395 OT CG       0.94E-01    5.6     0.00009530     -7326.5533567999 -5.76E-03
   396 OT LS       0.96E-01    2.4                    -7326.5590610083
   397 OT CG       0.96E-01    5.6     0.00009448     -7326.5590621158 -5.71E-03
   398 OT LS       0.96E-01    2.4                    -7326.5646722518
   399 OT CG       0.96E-01    5.6     0.00009403     -7326.5646722523 -5.61E-03
   400 OT LS       0.95E-01    2.4                    -7326.5701614564
   401 OT CG       0.95E-01    5.6     0.00009344     -7326.5701622744 -5.49E-03
   402 OT LS       0.94E-01    2.4                    -7326.5755740309
   403 OT CG       0.94E-01    5.6     0.00009249     -7326.5755740468 -5.41E-03
   404 OT LS       0.95E-01    2.4                    -7326.5809096805
   405 OT CG       0.95E-01    5.6     0.00009171     -7326.5809098913 -5.34E-03
   406 OT LS       0.95E-01    2.4                    -7326.5861586625
   407 OT CG       0.95E-01    5.6     0.00009112     -7326.5861586638 -5.25E-03
   408 OT LS       0.95E-01    2.4                    -7326.5913198165
   409 OT CG       0.95E-01    5.6     0.00009038     -7326.5913198937 -5.16E-03
   410 OT LS       0.95E-01    2.4                    -7326.5963940013
   411 OT CG       0.95E-01    5.6     0.00008976     -7326.5963940044 -5.07E-03
   412 OT LS       0.95E-01    2.4                    -7326.6014034623
   413 OT CG       0.95E-01    5.6     0.00008894     -7326.6014034668 -5.01E-03
   414 OT LS       0.95E-01    2.4                    -7326.6063552537
   415 OT CG       0.95E-01    5.6     0.00008830     -7326.6063554795 -4.95E-03
   416 OT LS       0.95E-01    2.4                    -7326.6112151690
   417 OT CG       0.95E-01    5.6     0.00008772     -7326.6112152654 -4.86E-03
   418 OT LS       0.95E-01    2.4                    -7326.6160097518
   419 OT CG       0.95E-01    5.6     0.00008711     -7326.6160097526 -4.79E-03
   420 OT LS       0.95E-01    2.4                    -7326.6207356196
   421 OT CG       0.95E-01    5.6     0.00008643     -7326.6207356200 -4.73E-03
   422 OT LS       0.95E-01    2.4                    -7326.6254138249
   423 OT CG       0.95E-01    5.6     0.00008584     -7326.6254139680 -4.68E-03
   424 OT LS       0.95E-01    2.4                    -7326.6300194102
   425 OT CG       0.95E-01    5.6     0.00008544     -7326.6300194329 -4.61E-03
   426 OT LS       0.95E-01    2.4                    -7326.6345563182
   427 OT CG       0.95E-01    5.6     0.00008489     -7326.6345564566 -4.54E-03
   428 OT LS       0.95E-01    2.4                    -7326.6390479622
   429 OT CG       0.95E-01    5.6     0.00008426     -7326.6390479948 -4.49E-03
   430 OT LS       0.95E-01    2.5                    -7326.6434689216
   431 OT CG       0.95E-01    5.6     0.00008373     -7326.6434689251 -4.42E-03
   432 OT LS       0.95E-01    2.4                    -7326.6478287833
   433 OT CG       0.95E-01    5.6     0.00008312     -7326.6478287907 -4.36E-03
   434 OT LS       0.95E-01    2.4                    -7326.6521292866
   435 OT CG       0.95E-01    5.6     0.00008242     -7326.6521292899 -4.30E-03
   436 OT LS       0.96E-01    2.4                    -7326.6563972116
   437 OT CG       0.96E-01    5.7     0.00008168     -7326.6563975861 -4.27E-03
   438 OT LS       0.96E-01    2.4                    -7326.6605898433
   439 OT CG       0.96E-01    5.6     0.00008126     -7326.6605898433 -4.19E-03
   440 OT LS       0.95E-01    2.4                    -7326.6647101469
   441 OT CG       0.95E-01    5.6     0.00008089     -7326.6647103454 -4.12E-03
   442 OT LS       0.94E-01    2.4                    -7326.6687602393
   443 OT CG       0.94E-01    5.6     0.00008024     -7326.6687605125 -4.05E-03
   444 OT LS       0.95E-01    2.4                    -7326.6727713517
   445 OT CG       0.95E-01    5.6     0.00007967     -7326.6727715125 -4.01E-03
   446 OT LS       0.95E-01    2.4                    -7326.6767108379
   447 OT CG       0.95E-01    5.6     0.00007902     -7326.6767108911 -3.94E-03
   448 OT LS       0.95E-01    2.4                    -7326.6806083027
   449 OT CG       0.95E-01    5.6     0.00007847     -7326.6806084271 -3.90E-03
   450 OT LS       0.95E-01    2.4                    -7326.6844479578
   451 OT CG       0.95E-01    5.6     0.00007774     -7326.6844479616 -3.84E-03
   452 OT LS       0.96E-01    2.4                    -7326.6882570632
   453 OT CG       0.96E-01    5.6     0.00007725     -7326.6882575056 -3.81E-03
   454 OT LS       0.96E-01    2.4                    -7326.6920070483
   455 OT CG       0.96E-01    5.6     0.00007689     -7326.6920070877 -3.75E-03
   456 OT LS       0.95E-01    2.4                    -7326.6956959876
   457 OT CG       0.95E-01    5.6     0.00007659     -7326.6956961690 -3.69E-03
   458 OT LS       0.94E-01    2.4                    -7326.6993282762
   459 OT CG       0.94E-01    5.6     0.00007608     -7326.6993285003 -3.63E-03
   460 OT LS       0.95E-01    2.4                    -7326.7029223794
   461 OT CG       0.95E-01    5.6     0.00007547     -7326.7029224065 -3.59E-03
   462 OT LS       0.95E-01    2.4                    -7326.7064760761
   463 OT CG       0.95E-01    5.6     0.00007496     -7326.7064761636 -3.55E-03
   464 OT LS       0.95E-01    2.4                    -7326.7099876070
   465 OT CG       0.95E-01    5.6     0.00007438     -7326.7099876136 -3.51E-03
   466 OT LS       0.96E-01    2.5                    -7326.7134622985
   467 OT CG       0.96E-01    5.6     0.00007387     -7326.7134623942 -3.47E-03
   468 OT LS       0.96E-01    2.5                    -7326.7168924436
   469 OT CG       0.96E-01    5.6     0.00007344     -7326.7168924452 -3.43E-03
   470 OT LS       0.95E-01    2.5                    -7326.7202654569
   471 OT CG       0.95E-01    5.6     0.00007309     -7326.7202655445 -3.37E-03
   472 OT LS       0.95E-01    2.5                    -7326.7235827394
   473 OT CG       0.95E-01    5.6     0.00007263     -7326.7235829082 -3.32E-03
   474 OT LS       0.94E-01    2.5                    -7326.7268496552
   475 OT CG       0.94E-01    5.7     0.00007205     -7326.7268496802 -3.27E-03
   476 OT LS       0.95E-01    2.5                    -7326.7300885127
   477 OT CG       0.95E-01    5.6     0.00007138     -7326.7300886888 -3.24E-03
   478 OT LS       0.96E-01    2.5                    -7326.7332852519
   479 OT CG       0.96E-01    5.6     0.00007094     -7326.7332853498 -3.20E-03
   480 OT LS       0.95E-01    2.5                    -7326.7364344045
   481 OT CG       0.95E-01    5.6     0.00007058     -7326.7364344291 -3.15E-03
   482 OT LS       0.95E-01    2.4                    -7326.7395315184
   483 OT CG       0.95E-01    5.6     0.00007003     -7326.7395316411 -3.10E-03
   484 OT LS       0.95E-01    2.4                    -7326.7425964508
   485 OT CG       0.95E-01    5.6     0.00006963     -7326.7425965312 -3.06E-03
   486 OT LS       0.96E-01    2.4                    -7326.7456356306
   487 OT CG       0.96E-01    5.6     0.00006915     -7326.7456356577 -3.04E-03
   488 OT LS       0.96E-01    2.4                    -7326.7486405835
   489 OT CG       0.96E-01    5.6     0.00006888     -7326.7486406003 -3.00E-03
   490 OT LS       0.95E-01    2.4                    -7326.7516035561
   491 OT CG       0.95E-01    5.6     0.00006857     -7326.7516036672 -2.96E-03
   492 OT LS       0.95E-01    2.4                    -7326.7545298566
   493 OT CG       0.95E-01    5.6     0.00006822     -7326.7545298933 -2.93E-03
   494 OT LS       0.95E-01    2.5                    -7326.7574305033
   495 OT CG       0.95E-01    5.6     0.00006780     -7326.7574305088 -2.90E-03
   496 OT LS       0.95E-01    2.4                    -7326.7602963809
   497 OT CG       0.95E-01    5.6     0.00006727     -7326.7602963810 -2.87E-03
   498 OT LS       0.95E-01    2.5                    -7326.7631302421
   499 OT CG       0.95E-01    5.6     0.00006685     -7326.7631303037 -2.83E-03
   500 OT LS       0.95E-01    2.4                    -7326.7659283940

  Leaving inner SCF loop after reaching   500 steps.


  Electronic density on regular grids:      -3255.9999971100        0.0000028900
  Core density on regular grids:             3255.9999997995       -0.0000002005
  Total charge density on r-space grids:        0.0000026895
  Total charge density g-space grids:           0.0000026895

  Overlap energy of the core charge distribution:               0.00001489574754
  Self energy of the core charge distribution:             -18846.42518120966997
  Core Hamiltonian energy:                                   5347.47984183993685
  Hartree energy:                                            7884.93252125138406
  Exchange-correlation energy:                              -1710.63428438088590
  Dispersion energy:                                           -2.11884079053924

  Total energy:                                             -7326.76592839402656

  outer SCF iter =    1 RMS gradient =   0.67E-04 energy =      -7326.7659283940

  ----------------------------------- OT ---------------------------------------
  Minimizer      : CG                  : conjugate gradient
  Preconditioner : FULL_ALL            : diagonalization, state selective
  Precond_solver : DEFAULT
  Line search    : 2PNT                : 2 energies, one gradient
  stepsize       :    0.15000000                  energy_gap     :    0.00100000
  eps_taylor     :   0.10000E-15                  max_taylor     :             4
  ----------------------------------- OT ---------------------------------------

  Step     Update method      Time    Convergence         Total energy    Change
  ------------------------------------------------------------------------------
     1 OT CG       0.15E+00   26.0     0.00046192     -7326.7659283947 -2.80E-03
     2 OT LS       0.25E+00    2.2                    -7327.0591255837
     3 OT CG       0.25E+00    5.2     0.00002843     -7327.1134004131 -3.47E-01
     4 OT LS       0.67E-01    2.2                    -7327.1111470747
     5 OT CG       0.67E-01    5.3     0.00000922     -7327.1137570414 -3.57E-04
     6 OT LS       0.73E-01    2.2                    -7327.1137979727
     7 OT CG       0.73E-01    5.3     0.00000353     -7327.1137983076 -4.13E-05
     8 OT LS       0.11E+00    2.2                    -7327.1138064090
     9 OT CG       0.11E+00    5.2     0.00000149     -7327.1138075160 -9.21E-06
    10 OT LS       0.99E-01    2.1                    -7327.1138089260
    11 OT CG       0.99E-01    5.2     0.00000056     -7327.1138089516 -1.44E-06

  *** SCF run converged in    11 steps ***


  Electronic density on regular grids:      -3255.9999971097        0.0000028903
  Core density on regular grids:             3255.9999997995       -0.0000002005
  Total charge density on r-space grids:        0.0000026898
  Total charge density g-space grids:           0.0000026898

  Overlap energy of the core charge distribution:               0.00001489574754
  Self energy of the core charge distribution:             -18846.42518120966997
  Core Hamiltonian energy:                                   5347.15567137645303
  Hartree energy:                                            7884.97786640538015
  Exchange-correlation energy:                              -1710.70333962902032
  Dispersion energy:                                           -2.11884079053924

  Total energy:                                             -7327.11380895164802

  outer SCF iter =    2 RMS gradient =   0.56E-06 energy =      -7327.1138089516
  outer SCF loop converged in   2 iterations or  511 steps


 ENERGY| Total FORCE_EVAL ( QS ) energy [a.u.]:            -7327.113809180378666

 ATOMIC FORCES in [a.u.]

 # Atom   Kind   Element          X              Y              Z
      1      1      Ti          0.00000000     0.00000000     0.00000000
      2      2      Si          0.00000000     0.00000000     0.00000000
      3      2      Si          0.00000000     0.00000000     0.00000000
      4      2      Si          0.00000000     0.00000000     0.00000000
      5      2      Si          0.00000000     0.00000000     0.00000000
      6      2      Si          0.00000000     0.00000000     0.00000000
      7      2      Si          0.00000000     0.00000000     0.00000000
      8      2      Si          0.00000000     0.00000000     0.00000000
      9      2      Si          0.00000000     0.00000000     0.00000000
     10      2      Si          0.00000000     0.00000000     0.00000000
     11      2      Si          0.00000000     0.00000000     0.00000000
     12      2      Si          0.00000000     0.00000000     0.00000000
     13      2      Si          0.00000000     0.00000000     0.00000000
     14      2      Si          0.00000000     0.00000000     0.00000000
     15      2      Si          0.00000000     0.00000000     0.00000000
     16      2      Si          0.00000000     0.00000000     0.00000000
     17      2      Si          0.00000000     0.00000000     0.00000000
     18      2      Si          0.00000000     0.00000000     0.00000000
     19      2      Si          0.00000000     0.00000000     0.00000000
     20      2      Si          0.00000000     0.00000000     0.00000000
     21      2      Si          0.00000000     0.00000000     0.00000000
     22      2      Si          0.00000000     0.00000000     0.00000000
     23      2      Si          0.00000000     0.00000000     0.00000000
     24      2      Si          0.00000000     0.00000000     0.00000000
     25      2      Si          0.00000000     0.00000000     0.00000000
     26      2      Si          0.00000000     0.00000000     0.00000000
     27      2      Si          0.00000000     0.00000000     0.00000000
     28      2      Si          0.00000000     0.00000000     0.00000000
     29      2      Si          0.00000000     0.00000000     0.00000000
     30      2      Si          0.00000000     0.00000000     0.00000000
     31      2      Si          0.00000000     0.00000000     0.00000000
     32      2      Si          0.00000000     0.00000000     0.00000000
     33      2      Si          0.00000000     0.00000000     0.00000000
     34      2      Si          0.00000000     0.00000000     0.00000000
     35      2      Si          0.00000000     0.00000000     0.00000000
     36      2      Si          0.00000000     0.00000000     0.00000000
     37      2      Si          0.00000000     0.00000000     0.00000000
     38      2      Si          0.00000000     0.00000000     0.00000000
     39      2      Si          0.00000000     0.00000000     0.00000000
     40      2      Si          0.00000000     0.00000000     0.00000000
     41      2      Si          0.00000000     0.00000000     0.00000000
     42      2      Si          0.00000000     0.00000000     0.00000000
     43      2      Si          0.00000000     0.00000000     0.00000000
     44      2      Si          0.00000000     0.00000000     0.00000000
     45      2      Si          0.00000000     0.00000000     0.00000000
     46      2      Si          0.00000000     0.00000000     0.00000000
     47      2      Si          0.00000000     0.00000000     0.00000000
     48      2      Si          0.00000000     0.00000000     0.00000000
     49      2      Si          0.00000000     0.00000000     0.00000000
     50      2      Si          0.00000000     0.00000000     0.00000000
     51      2      Si          0.00000000     0.00000000     0.00000000
     52      2      Si          0.00000000     0.00000000     0.00000000
     53      2      Si          0.00000000     0.00000000     0.00000000
     54      2      Si          0.00000000     0.00000000     0.00000000
     55      2      Si          0.00000000     0.00000000     0.00000000
     56      2      Si          0.00000000     0.00000000     0.00000000
     57      2      Si          0.00000000     0.00000000     0.00000000
     58      2      Si          0.00000000     0.00000000     0.00000000
     59      2      Si          0.00000000     0.00000000     0.00000000
     60      2      Si          0.00000000     0.00000000     0.00000000
     61      2      Si          0.00000000     0.00000000     0.00000000
     62      2      Si          0.00000000     0.00000000     0.00000000
     63      2      Si          0.00000000     0.00000000     0.00000000
     64      2      Si          0.00000000     0.00000000     0.00000000
     65      2      Si          0.00000000     0.00000000     0.00000000
     66      2      Si          0.00000000     0.00000000     0.00000000
     67      2      Si          0.00000000     0.00000000     0.00000000
     68      2      Si          0.00000000     0.00000000     0.00000000
     69      2      Si          0.00000000     0.00000000     0.00000000
     70      2      Si          0.00000000     0.00000000     0.00000000
     71      2      Si          0.00000000     0.00000000     0.00000000
     72      2      Si          0.00000000     0.00000000     0.00000000
     73      2      Si          0.00000000     0.00000000     0.00000000
     74      2      Si          0.00000000     0.00000000     0.00000000
     75      2      Si          0.00000000     0.00000000     0.00000000
     76      2      Si          0.00000000     0.00000000     0.00000000
     77      2      Si          0.00000000     0.00000000     0.00000000
     78      2      Si          0.00000000     0.00000000     0.00000000
     79      2      Si          0.00000000     0.00000000     0.00000000
     80      2      Si          0.00000000     0.00000000     0.00000000
     81      2      Si          0.00000000     0.00000000     0.00000000
     82      2      Si          0.00000000     0.00000000     0.00000000
     83      2      Si          0.00000000     0.00000000     0.00000000
     84      2      Si          0.00000000     0.00000000     0.00000000
     85      2      Si          0.00000000     0.00000000     0.00000000
     86      2      Si          0.00000000     0.00000000     0.00000000
     87      2      Si          0.00000000     0.00000000     0.00000000
     88      2      Si          0.00000000     0.00000000     0.00000000
     89      2      Si          0.00000000     0.00000000     0.00000000
     90      2      Si          0.00000000     0.00000000     0.00000000
     91      2      Si          0.00000000     0.00000000     0.00000000
     92      2      Si          0.00000000     0.00000000     0.00000000
     93      2      Si          0.00000000     0.00000000     0.00000000
     94      2      Si          0.00000000     0.00000000     0.00000000
     95      2      Si          0.00000000     0.00000000     0.00000000
     96      2      Si          0.00000000     0.00000000     0.00000000
     97      2      Si          0.00000000     0.00000000     0.00000000
     98      2      Si          0.00000000     0.00000000     0.00000000
     99      2      Si          0.00000000     0.00000000     0.00000000
    100      2      Si          0.00000000     0.00000000     0.00000000
    101      2      Si          0.00000000     0.00000000     0.00000000
    102      2      Si          0.00000000     0.00000000     0.00000000
    103      2      Si          0.00000000     0.00000000     0.00000000
    104      2      Si          0.00000000     0.00000000     0.00000000
    105      2      Si          0.00000000     0.00000000     0.00000000
    106      2      Si          0.00000000     0.00000000     0.00000000
    107      2      Si          0.00000000     0.00000000     0.00000000
    108      2      Si          0.00000000     0.00000000     0.00000000
    109      2      Si          0.00000000     0.00000000     0.00000000
    110      2      Si          0.00000000     0.00000000     0.00000000
    111      2      Si          0.00000000     0.00000000     0.00000000
    112      2      Si          0.00000000     0.00000000     0.00000000
    113      2      Si          0.00000000     0.00000000     0.00000000
    114      2      Si          0.00000000     0.00000000     0.00000000
    115      2      Si          0.00000000     0.00000000     0.00000000
    116      2      Si          0.00000000     0.00000000     0.00000000
    117      2      Si          0.00000000     0.00000000     0.00000000
    118      2      Si          0.00000000     0.00000000     0.00000000
    119      2      Si          0.00000000     0.00000000     0.00000000
    120      2      Si          0.00000000     0.00000000     0.00000000
    121      2      Si          0.00000000     0.00000000     0.00000000
    122      2      Si          0.00000000     0.00000000     0.00000000
    123      2      Si          0.00000000     0.00000000     0.00000000
    124      2      Si          0.00000000     0.00000000     0.00000000
    125      2      Si          0.00000000     0.00000000     0.00000000
    126      2      Si          0.00000000     0.00000000     0.00000000
    127      2      Si          0.00000000     0.00000000     0.00000000
    128      2      Si          0.00000000     0.00000000     0.00000000
    129      2      Si          0.00000000     0.00000000     0.00000000
    130      2      Si          0.00000000     0.00000000     0.00000000
    131      2      Si          0.00000000     0.00000000     0.00000000
    132      2      Si          0.00000000     0.00000000     0.00000000
    133      2      Si          0.00000000     0.00000000     0.00000000
    134      2      Si          0.00000000     0.00000000     0.00000000
    135      2      Si          0.00000000     0.00000000     0.00000000
    136      2      Si          0.00000000     0.00000000     0.00000000
    137      2      Si          0.00000000     0.00000000     0.00000000
    138      2      Si          0.00000000     0.00000000     0.00000000
    139      2      Si          0.00000000     0.00000000     0.00000000
    140      2      Si          0.00000000     0.00000000     0.00000000
    141      2      Si          0.00000000     0.00000000     0.00000000
    142      2      Si          0.00000000     0.00000000     0.00000000
    143      2      Si          0.00000000     0.00000000     0.00000000
    144      2      Si          0.00000000     0.00000000     0.00000000
    145      2      Si          0.00000000     0.00000000     0.00000000
    146      2      Si          0.00000000     0.00000000     0.00000000
    147      2      Si          0.00000000     0.00000000     0.00000000
    148      2      Si          0.00000000     0.00000000     0.00000000
    149      2      Si          0.00000000     0.00000000     0.00000000
    150      2      Si          0.00000000     0.00000000     0.00000000
    151      2      Si          0.00000000     0.00000000     0.00000000
    152      2      Si          0.00000000     0.00000000     0.00000000
    153      2      Si          0.00000000     0.00000000     0.00000000
    154      2      Si          0.00000000     0.00000000     0.00000000
    155      2      Si          0.00000000     0.00000000     0.00000000
    156      2      Si          0.00000000     0.00000000     0.00000000
    157      2      Si          0.00000000     0.00000000     0.00000000
    158      2      Si          0.00000000     0.00000000     0.00000000
    159      2      Si          0.00000000     0.00000000     0.00000000
    160      2      Si          0.00000000     0.00000000     0.00000000
    161      2      Si          0.00000000     0.00000000     0.00000000
    162      2      Si          0.00000000     0.00000000     0.00000000
    163      2      Si          0.00000000     0.00000000     0.00000000
    164      2      Si          0.00000000     0.00000000     0.00000000
    165      2      Si          0.00000000     0.00000000     0.00000000
    166      2      Si          0.00000000     0.00000000     0.00000000
    167      2      Si          0.00000000     0.00000000     0.00000000
    168      2      Si          0.00000000     0.00000000     0.00000000
    169      2      Si          0.00000000     0.00000000     0.00000000
    170      2      Si          0.00000000     0.00000000     0.00000000
    171      2      Si          0.00000000     0.00000000     0.00000000
    172      2      Si          0.00000000     0.00000000     0.00000000
    173      2      Si          0.00000000     0.00000000     0.00000000
    174      2      Si          0.00000000     0.00000000     0.00000000
    175      2      Si          0.00000000     0.00000000     0.00000000
    176      2      Si          0.00000000     0.00000000     0.00000000
    177      2      Si          0.00000000     0.00000000     0.00000000
    178      2      Si          0.00000000     0.00000000     0.00000000
    179      2      Si          0.00000000     0.00000000     0.00000000
    180      2      Si          0.00000000     0.00000000     0.00000000
    181      2      Si          0.00000000     0.00000000     0.00000000
    182      2      Si          0.00000000     0.00000000     0.00000000
    183      2      Si          0.00000000     0.00000000     0.00000000
    184      2      Si          0.00000000     0.00000000     0.00000000
    185      2      Si          0.00000000     0.00000000     0.00000000
    186      2      Si          0.00000000     0.00000000     0.00000000
    187      2      Si          0.00000000     0.00000000     0.00000000
    188      2      Si          0.00000000     0.00000000     0.00000000
    189      2      Si          0.00000000     0.00000000     0.00000000
    190      2      Si          0.00000000     0.00000000     0.00000000
    191      2      Si          0.00000000     0.00000000     0.00000000
    192      3      O           0.00000000     0.00000000     0.00000000
    193      3      O           0.00000000     0.00000000     0.00000000
    194      3      O           0.00000000     0.00000000     0.00000000
    195      3      O           0.00000000     0.00000000     0.00000000
    196      3      O           0.00000000     0.00000000     0.00000000
    197      3      O           0.00000000     0.00000000     0.00000000
    198      3      O           0.00000000     0.00000000     0.00000000
    199      3      O           0.00000000     0.00000000     0.00000000
    200      3      O           0.00000000     0.00000000     0.00000000
    201      3      O           0.00000000     0.00000000     0.00000000
    202      3      O           0.00000000     0.00000000     0.00000000
    203      3      O           0.00000000     0.00000000     0.00000000
    204      3      O           0.00000000     0.00000000     0.00000000
    205      3      O           0.00000000     0.00000000     0.00000000
    206      3      O           0.00000000     0.00000000     0.00000000
    207      3      O           0.00000000     0.00000000     0.00000000
    208      3      O           0.00000000     0.00000000     0.00000000
    209      3      O           0.00000000     0.00000000     0.00000000
    210      3      O           0.00000000     0.00000000     0.00000000
    211      3      O           0.00000000     0.00000000     0.00000000
    212      3      O           0.00000000     0.00000000     0.00000000
    213      3      O           0.00000000     0.00000000     0.00000000
    214      3      O           0.00000000     0.00000000     0.00000000
    215      3      O           0.00000000     0.00000000     0.00000000
    216      3      O           0.00000000     0.00000000     0.00000000
    217      3      O           0.00000000     0.00000000     0.00000000
    218      3      O           0.00000000     0.00000000     0.00000000
    219      3      O           0.00000000     0.00000000     0.00000000
    220      3      O           0.00000000     0.00000000     0.00000000
    221      3      O           0.00000000     0.00000000     0.00000000
    222      3      O           0.00000000     0.00000000     0.00000000
    223      3      O           0.00000000     0.00000000     0.00000000
    224      3      O           0.00000000     0.00000000     0.00000000
    225      3      O           0.00000000     0.00000000     0.00000000
    226      3      O           0.00000000     0.00000000     0.00000000
    227      3      O           0.00000000     0.00000000     0.00000000
    228      3      O           0.00000000     0.00000000     0.00000000
    229      3      O           0.00000000     0.00000000     0.00000000
    230      3      O           0.00000000     0.00000000     0.00000000
    231      3      O           0.00000000     0.00000000     0.00000000
    232      3      O           0.00000000     0.00000000     0.00000000
    233      3      O           0.00000000     0.00000000     0.00000000
    234      3      O           0.00000000     0.00000000     0.00000000
    235      3      O           0.00000000     0.00000000     0.00000000
    236      3      O           0.00000000     0.00000000     0.00000000
    237      3      O           0.00000000     0.00000000     0.00000000
    238      3      O           0.00000000     0.00000000     0.00000000
    239      3      O           0.00000000     0.00000000     0.00000000
    240      3      O           0.00000000     0.00000000     0.00000000
    241      3      O           0.00000000     0.00000000     0.00000000
    242      3      O           0.00000000     0.00000000     0.00000000
    243      3      O           0.00000000     0.00000000     0.00000000
    244      3      O           0.00000000     0.00000000     0.00000000
    245      3      O           0.00000000     0.00000000     0.00000000
    246      3      O           0.00000000     0.00000000     0.00000000
    247      3      O           0.00000000     0.00000000     0.00000000
    248      3      O           0.00000000     0.00000000     0.00000000
    249      3      O           0.00000000     0.00000000     0.00000000
    250      3      O           0.00000000     0.00000000     0.00000000
    251      3      O           0.00000000     0.00000000     0.00000000
    252      3      O           0.00000000     0.00000000     0.00000000
    253      3      O           0.00000000     0.00000000     0.00000000
    254      3      O           0.00000000     0.00000000     0.00000000
    255      3      O           0.00000000     0.00000000     0.00000000
    256      3      O           0.00000000     0.00000000     0.00000000
    257      3      O           0.00000000     0.00000000     0.00000000
    258      3      O           0.00000000     0.00000000     0.00000000
    259      3      O           0.00000000     0.00000000     0.00000000
    260      3      O           0.00000000     0.00000000     0.00000000
    261      3      O           0.00000000     0.00000000     0.00000000
    262      3      O           0.00000000     0.00000000     0.00000000
    263      3      O           0.00000000     0.00000000     0.00000000
    264      3      O           0.00000000     0.00000000     0.00000000
    265      3      O           0.00000000     0.00000000     0.00000000
    266      3      O           0.00000000     0.00000000     0.00000000
    267      3      O           0.00000000     0.00000000     0.00000000
    268      3      O           0.00000000     0.00000000     0.00000000
    269      3      O           0.00000000     0.00000000     0.00000000
    270      3      O           0.00000000     0.00000000     0.00000000
    271      3      O           0.00000000     0.00000000     0.00000000
    272      3      O           0.00000000     0.00000000     0.00000000
    273      3      O           0.00000000     0.00000000     0.00000000
    274      3      O           0.00000000     0.00000000     0.00000000
    275      3      O           0.00000000     0.00000000     0.00000000
    276      3      O           0.00000000     0.00000000     0.00000000
    277      3      O           0.00000000     0.00000000     0.00000000
    278      3      O           0.00000000     0.00000000     0.00000000
    279      3      O           0.00000000     0.00000000     0.00000000
    280      3      O           0.00000000     0.00000000     0.00000000
    281      3      O           0.00000000     0.00000000     0.00000000
    282      3      O           0.00000000     0.00000000     0.00000000
    283      3      O           0.00000000     0.00000000     0.00000000
    284      3      O           0.00000000     0.00000000     0.00000000
    285      3      O           0.00000000     0.00000000     0.00000000
    286      3      O           0.00000000     0.00000000     0.00000000
    287      3      O           0.00000000     0.00000000     0.00000000
    288      3      O           0.00000000     0.00000000     0.00000000
    289      3      O           0.00000000     0.00000000     0.00000000
    290      3      O           0.00000000     0.00000000     0.00000000
    291      3      O           0.00000000     0.00000000     0.00000000
    292      3      O           0.00000000     0.00000000     0.00000000
    293      3      O           0.00000000     0.00000000     0.00000000
    294      3      O           0.00000000     0.00000000     0.00000000
    295      3      O           0.00000000     0.00000000     0.00000000
    296      3      O           0.00000000     0.00000000     0.00000000
    297      3      O           0.00000000     0.00000000     0.00000000
    298      3      O           0.00000000     0.00000000     0.00000000
    299      3      O           0.00000000     0.00000000     0.00000000
    300      3      O           0.00000000     0.00000000     0.00000000
    301      3      O           0.00000000     0.00000000     0.00000000
    302      3      O           0.00000000     0.00000000     0.00000000
    303      3      O           0.00000000     0.00000000     0.00000000
    304      3      O           0.00000000     0.00000000     0.00000000
    305      3      O           0.00000000     0.00000000     0.00000000
    306      3      O           0.00000000     0.00000000     0.00000000
    307      3      O           0.00000000     0.00000000     0.00000000
    308      3      O           0.00000000     0.00000000     0.00000000
    309      3      O           0.00000000     0.00000000     0.00000000
    310      3      O           0.00000000     0.00000000     0.00000000
    311      3      O           0.00000000     0.00000000     0.00000000
    312      3      O           0.00000000     0.00000000     0.00000000
    313      3      O           0.00000000     0.00000000     0.00000000
    314      3      O           0.00000000     0.00000000     0.00000000
    315      3      O           0.00000000     0.00000000     0.00000000
    316      3      O           0.00000000     0.00000000     0.00000000
    317      3      O           0.00000000     0.00000000     0.00000000
    318      3      O           0.00000000     0.00000000     0.00000000
    319      3      O           0.00000000     0.00000000     0.00000000
    320      3      O           0.00000000     0.00000000     0.00000000
    321      3      O           0.00000000     0.00000000     0.00000000
    322      3      O           0.00000000     0.00000000     0.00000000
    323      3      O           0.00000000     0.00000000     0.00000000
    324      3      O           0.00000000     0.00000000     0.00000000
    325      3      O           0.00000000     0.00000000     0.00000000
    326      3      O           0.00000000     0.00000000     0.00000000
    327      3      O           0.00000000     0.00000000     0.00000000
    328      3      O           0.00000000     0.00000000     0.00000000
    329      3      O           0.00000000     0.00000000     0.00000000
    330      3      O           0.00000000     0.00000000     0.00000000
    331      3      O           0.00000000     0.00000000     0.00000000
    332      3      O           0.00000000     0.00000000     0.00000000
    333      3      O           0.00000000     0.00000000     0.00000000
    334      3      O           0.00000000     0.00000000     0.00000000
    335      3      O           0.00000000     0.00000000     0.00000000
    336      3      O           0.00000000     0.00000000     0.00000000
    337      3      O           0.00000000     0.00000000     0.00000000
    338      3      O           0.00000000     0.00000000     0.00000000
    339      3      O           0.00000000     0.00000000     0.00000000
    340      3      O           0.00000000     0.00000000     0.00000000
    341      3      O           0.00000000     0.00000000     0.00000000
    342      3      O           0.00000000     0.00000000     0.00000000
    343      3      O           0.00000000     0.00000000     0.00000000
    344      3      O           0.00000000     0.00000000     0.00000000
    345      3      O           0.00000000     0.00000000     0.00000000
    346      3      O           0.00000000     0.00000000     0.00000000
    347      3      O           0.00000000     0.00000000     0.00000000
    348      3      O           0.00000000     0.00000000     0.00000000
    349      3      O           0.00000000     0.00000000     0.00000000
    350      3      O           0.00000000     0.00000000     0.00000000
    351      3      O           0.00000000     0.00000000     0.00000000
    352      3      O           0.00000000     0.00000000     0.00000000
    353      3      O           0.00000000     0.00000000     0.00000000
    354      3      O           0.00000000     0.00000000     0.00000000
    355      3      O           0.00000000     0.00000000     0.00000000
    356      3      O           0.00000000     0.00000000     0.00000000
    357      3      O           0.00000000     0.00000000     0.00000000
    358      3      O           0.00000000     0.00000000     0.00000000
    359      3      O           0.00000000     0.00000000     0.00000000
    360      3      O           0.00000000     0.00000000     0.00000000
    361      3      O           0.00000000     0.00000000     0.00000000
    362      3      O           0.00000000     0.00000000     0.00000000
    363      3      O           0.00000000     0.00000000     0.00000000
    364      3      O           0.00000000     0.00000000     0.00000000
    365      3      O           0.00000000     0.00000000     0.00000000
    366      3      O           0.00000000     0.00000000     0.00000000
[...]
 flops  2020 x   284 x   128        9307824906240       0.0%    100.0%      0.0%
 flops  2010 x   288 x   662       11091878000640       0.0%    100.0%      0.0%
 flops  2020 x   288 x   662       11147061473280       0.0%    100.0%      0.0%
 flops  2010 x   256 x   662       14789170667520       0.0%    100.0%      0.0%
 flops  2020 x   256 x   662       14862748631040       0.0%    100.0%      0.0%
 flops  2010 x   288 x   670       14967891763200       0.0%    100.0%      0.0%
 flops  2020 x   288 x   670       15042358886400       0.0%    100.0%      0.0%
 flops  2010 x   288 x   128       18784387399680       0.0%    100.0%      0.0%
 flops  2020 x   288 x   128       18877842063360       0.0%    100.0%      0.0%
 flops  2010 x   256 x   670       19957189017600       0.0%    100.0%      0.0%
 flops  2020 x   256 x   670       20056478515200       0.0%    100.0%      0.0%
 flops  2010 x   256 x   128       25045849866240       0.0%    100.0%      0.0%
 flops    13 x    13 x   128       25073296694784       0.0%    100.0%      0.0%
 flops  2020 x   256 x   128       25170456084480       0.0%    100.0%      0.0%
 flops    13 x    32 x    13      143859909356800       0.0%    100.0%      0.0%
 flops inhomo. stacks             126864956055552     100.0%      0.0%      0.0%
 flops total                       753.581141E+12      16.8%     83.2%      0.0%
 flops max/rank                     33.515269E+12      16.9%     83.1%      0.0%
 matmuls inhomo. stacks                    367872     100.0%      0.0%      0.0%
 matmuls total                        18309391896       0.0%    100.0%      0.0%
 number of processed stacks              25235646       1.5%     98.5%      0.0%
 average stack size                                     1.0     736.3       0.0
 marketing flops                     1.288847E+15
 -------------------------------------------------------------------------------
 # multiplications                          14661
 max memory usage/rank               1.295176E+09
 # max total images/rank                        3
 # max 3D layers                                1
 # MPI messages exchanged                 6685416
 MPI messages size (bytes):
  total size                        12.138887E+12
  min size                           0.000000E+00
  max size                          11.247360E+06
  average size                       1.815726E+06
 MPI breakdown and total messages size (bytes):
             size <=      128               49608                        0
       128 < size <=     8192                   0                        0
      8192 < size <=    32768                2106                 69009408
     32768 < size <=   131072                 702                 28304640
    131072 < size <=  4194304             6343560            9003248263264
   4194304 < size <= 16777216              289440            3133844064000
  16777216 < size                               0                        0
 -------------------------------------------------------------------------------

 *** WARNING in dbcsr_mm.F:291 :: Using a non-square number of MPI ranks ***
 *** might lead to poor performance. Used ranks: 24 Suggested: 25 49     ***

 -------------------------------------------------------------------------------
 -                                                                             -
 -                      DBCSR MESSAGE PASSING PERFORMANCE                      -
 -                                                                             -
 -------------------------------------------------------------------------------
 ROUTINE             CALLS      AVE VOLUME [Bytes]
 MP_Bcast              142                     12.
 MP_Allreduce        73551                     97.
 MP_Alltoall         69380                 875908.
 MP_ISend           672668                 823139.
 MP_IRecv           662730                 828147.
 -------------------------------------------------------------------------------

 -------------------------------------------------------------------------------
 -                                                                             -
 -                                DBM STATISTICS                               -
 -                                                                             -
 -------------------------------------------------------------------------------
    M  x    N  x    K                                          COUNT     PERCENT
 -------------------------------------------------------------------------------

 -------------------------------------------------------------------------------
 -                                                                             -
 -                                GRID STATISTICS                              -
 -                                                                             -
 -------------------------------------------------------------------------------
 LP    KERNEL             BACKEND                              COUNT     PERCENT
 4     collocate ortho    CPU                              304432084      50.85%
 4     integrate ortho    CPU                              152216042      25.43%
 3     collocate ortho    CPU                               58639248       9.80%
 3     integrate ortho    CPU                               29319624       4.90%
 7     integrate ortho    CPU                               22034633       3.68%
 2     collocate ortho    CPU                               14236244       2.38%
 2     integrate ortho    CPU                                7118122       1.19%
 6     integrate ortho    CPU                                4262424       0.71%
 5     integrate ortho    CPU                                1957141       0.33%
 5     collocate ortho    CPU                                1852090       0.31%
 0     collocate general  CPU                                1203048       0.20%
 3     integrate general  CPU                                1187424       0.20%
 8     integrate ortho    CPU                                 134047       0.02%
 6     collocate ortho    CPU                                  37800       0.01%
 9     integrate ortho    CPU                                   2736       0.00%
 -------------------------------------------------------------------------------

 MEMORY| Estimated peak process memory [MiB]                                1236

 -------------------------------------------------------------------------------
 -                                                                             -
 -                         MESSAGE PASSING PERFORMANCE                         -
 -                                                                             -
 -------------------------------------------------------------------------------

 ROUTINE             CALLS      AVE VOLUME [Bytes]
 MP_Group                5
 MP_Bcast            36904                 229702.
 MP_Allreduce       103231                   1241.
 MP_Sync               815
 MP_Alltoall         18493               33534353.
 MP_SendRecv         79442                 117331.
 MP_ISendRecv        41469                 127093.
 MP_Wait            153527
 MP_comm_split         810
 MP_ISend           100042                 808672.
 MP_IRecv           100042                 808829.
 -------------------------------------------------------------------------------


 -------------------------------------------------------------------------------
 -                                                                             -
 -                           R E F E R E N C E S                               -
 -                                                                             -
 -------------------------------------------------------------------------------
 
 CP2K version 2023.2, the CP2K developers group (2023).
 CP2K is freely available from https://www.cp2k.org/ .

 Kuehne,Thomas D.; Iannuzzi,Marcella; Del Ben,Mauro;
 Rybkin,Vladimir V.; Seewald,Patrick; Stein,Frederick; Laino,Teodoro;
 Khaliullin,Rustam Z.; Schuett,Ole; Schiffmann,Florian; Golze,Dorothea;
 Wilhelm,Jan; Chulkov,Sergey; Bani-Hashemian,Mohammad Hossein;
 Weber,Valery; Borstnik,Urban; Taillefumier,Mathieu;
 Jakobovits,Alice Shoshana; Lazzaro,Alfio; Pabst,Hans; Mueller,Tiziano;
 Schade,Robert; Guidon,Manuel; Andermatt,Samuel; Holmberg,Nico;
 Schenter,Gregory K.; Hehn,Anna; Bussy,Augustin; Belleflamme,Fabian;
 Tabacchi,Gloria; Gloess,Andreas; Lass,Michael; Bethune,Iain;
 Mundy,Christopher J.; Plessl,Christian; Watkins,Matt;
 VandeVondele,Joost; Krack,Matthias; Hutter,Juerg. 
 The Journal of Chemical Physics, 152 (19), (2020). 
 CP2K: An electronic structure and molecular dynamics software package -
 Quickstep: Efficient and accurate electronic structure calculations.
 https://doi.org/10.1063/5.0007045

 Goerigk, Lars; Hansen, Andreas; Bauer, Christoph; Ehrlich, Stephan;
 Najibi, Asim; Grimme, Stefan. , 19 (48), (2017). 
 A look at the density functional theory zoo with the advanced GMTKN55 database
 for general main group thermochemistry, kinetics and noncovalent interactions.
 https://doi.org/10.1039/C7CP04913G

 Schuett, Ole; Messmer, Peter; Hutter, Juerg; VandeVondele, Joost. 
 Electronic Structure Calculations on Graphics Processing Units, John
 Wiley & Sons, Ltd, 173-190 (2016). 
 GPU-Accelerated Sparse Matrix-Matrix Multiplication for
 Linear Scaling Density Functional Theory.
 https://doi.org/10.1002/9781118670712.ch8

 Heinecke, A; Henry, G; Hutchinson, M; Pabst, H. 
 Proceedings of Intl. Supercomputing Conference, 981-991 (2016). 
 LIBXSMM: Accelerating Small Matrix Multiplications
 by Runtime Code Generation.
 https://doi.org/10.1109/SC.2016.83

 Borstnik, U; VandeVondele, J; Weber, V; Hutter, J. 
 PARALLEL COMPUTING, 40 (5-6), 47-58 (2014). 
 Sparse matrix multiplication: The distributed block-compressed sparse
 row library.
 https://doi.org/10.1016/j.parco.2014.03.012

 Hutter, J; Iannuzzi, M; Schiffmann, F; VandeVondele, J. 
 WIREs Comput Mol Sci., 4 (1), 15-25 (2014). 
 CP2K: atomistic simulations of condensed matter systems.
 https://doi.org/10.1002/wcms.1159

 Grimme, S; Ehrlich, S; Goerigk, L. 
 JOURNAL OF COMPUTATIONAL CHEMISTRY, 32, 1456 (2011). 
 Effect of the damping function in dispersion corrected density functional theory.
 https://doi.org/10.1002/jcc.21759

 Grimme, S; Antony, J; Ehrlich, S; Krieg, H. 
 JOURNAL OF CHEMICAL PHYSICS, 132 (15), 154104 (2010). 
 A consistent and accurate ab initio parametrization of density
 functional dispersion correction (DFT-D) for the 94 elements H-Pu.
 https://doi.org/10.1063/1.3382344

 VandeVondele, J; Hutter, J. 
 JOURNAL OF CHEMICAL PHYSICS, 127 (11), 114105 (2007). 
 Gaussian basis sets for accurate calculations on molecular systems in
 gas and condensed phases.
 https://doi.org/10.1063/1.2770708

 Kuhne, TD; Krack, M; Mohamed, FR; Parrinello, M. 
 PHYSICAL REVIEW LETTERS, 98 (6), 066401 (2007). 
 Efficient and accurate Car-Parrinello-like approach to
 Born-Oppenheimer molecular dynamics.
 https://doi.org/10.1103/PhysRevLett.98.066401

 Krack, M. 
 THEORETICAL CHEMISTRY ACCOUNTS, 114 (1-3), 145-152 (2005). 
 Pseudopotentials for H to Kr optimized for gradient-corrected
 exchange-correlation functionals.
 https://doi.org/10.1007/s00214-005-0655-y

 VandeVondele, J; Krack, M; Mohamed, F; Parrinello, M; Chassaing, T;
 Hutter, J. COMPUTER PHYSICS COMMUNICATIONS, 167 (2), 103-128 (2005). 
 QUICKSTEP: Fast and accurate density functional calculations using a
 mixed Gaussian and plane waves approach.
 https://doi.org/10.1016/j.cpc.2004.12.014

 Frigo, M; Johnson, SG. 
 PROCEEDINGS OF THE IEEE, 93 (2), 216-231 (2005). 
 The design and implementation of FFTW3.
 https://doi.org/10.1109/JPROC.2004.840301

 Kolafa, J. 
 JOURNAL OF COMPUTATIONAL CHEMISTRY, 25 (3), 335-342 (2004). 
 Time-reversible always stable predictor-corrector method for
 molecular dynamics of polarizable molecules.
 https://doi.org/10.1002/jcc.10385

 VandeVondele, J; Hutter, J. 
 JOURNAL OF CHEMICAL PHYSICS, 118 (10), 4365-4369 (2003). 
 An efficient orbital transformation method for electronic structure
 calculations.
 https://doi.org/10.1063/1.1543154

 Hartwigsen, C; Goedecker, S; Hutter, J. 
 PHYSICAL REVIEW B, 58 (7), 3641-3662 (1998). 
 Relativistic separable dual-space Gaussian pseudopotentials from H to Rn.
 https://doi.org/10.1103/PhysRevB.58.3641

 Lippert, G; Hutter, J; Parrinello, M. 
 MOLECULAR PHYSICS, 92 (3), 477-487 (1997). 
 A hybrid Gaussian and plane wave density functional scheme.
 https://doi.org/10.1080/002689797170220

 Perdew, JP; Burke, K; Ernzerhof, M. 
 PHYSICAL REVIEW LETTERS, 77 (18), 3865-3868 (1996). 
 Generalized gradient approximation made simple.
 https://doi.org/10.1103/PhysRevLett.77.3865

 Goedecker, S; Teter, M; Hutter, J. 
 PHYSICAL REVIEW B, 54 (3), 1703-1710 (1996). 
 Separable dual-space Gaussian pseudopotentials.
 https://doi.org/10.1103/PhysRevB.54.1703


 -------------------------------------------------------------------------------
 -                                                                             -
 -                                T I M I N G                                  -
 -                                                                             -
 -------------------------------------------------------------------------------
 SUBROUTINE                       CALLS  ASD         SELF TIME        TOTAL TIME
                                MAXIMUM       AVERAGE  MAXIMUM  AVERAGE  MAXIMUM
 CP2K                                 1  1.0    0.021    0.022 5830.063 5830.077
 cp_geo_opt                           1  2.0    0.002    0.002 5828.809 5828.822
 geoopt_bfgs                          1  3.0    0.139    0.156 5828.807 5828.820
 cp_eval_at                          77  4.0    0.013    0.091 5803.477 5803.549
 qs_forces                           76  5.0    0.027    0.029 5773.264 5773.277
 qs_energies                         77  6.0    0.006    0.008 5426.749 5426.864
 scf_env_do_scf                      77  7.0    0.004    0.008 5151.573 5151.690
 scf_env_do_scf_inner_loop          973  8.0    0.025    0.168 3695.926 3697.294
 rebuild_ks_matrix                 1049  9.8    0.005    0.006 1930.049 1932.474
 qs_ks_build_kohn_sham_matrix      1049 10.8    0.144    0.164 1930.044 1932.469
 qs_ks_update_qs_env               1051  9.0    0.008    0.010 1635.453 1637.551
 dbcsr_multiply_generic           14661 13.7    0.988    1.094 1462.381 1468.779
 init_scf_loop                       78  8.0    0.003    0.004 1452.529 1452.566
 qs_scf_new_mos                     973  9.0    0.006    0.010 1338.671 1341.830
 qs_scf_loop_do_ot                  973 10.0    0.007    0.009 1338.665 1341.825
 ot_scf_mini                        973 11.0    0.037    0.044 1241.971 1244.090
 prepare_preconditioner              78  9.0    0.001    0.001 1242.343 1242.970
 pw_transfer                      17632 13.7    0.886    0.941 1197.018 1204.960
 make_preconditioner                 78 10.0    0.002    0.002 1194.565 1194.838
 fft_wrap_pw1pw2                  15534 14.8    0.157    0.168 1182.123 1190.216
 multiply_cannon                  14661 14.7    1.391    1.816 1147.747 1169.088
 make_full_all                       78 11.0    0.162    0.196 1147.758 1147.801
 fft_wrap_pw1pw2_180               8930 16.4  195.594  207.037 1137.138 1145.323
 multiply_cannon_loop             14661 15.7    2.419    2.618 1096.018 1121.171
 qs_vxc_create                     1049 11.8    0.024    0.026 1059.518 1063.671
 qs_rho_update_rho_low             1050  9.1    0.005    0.005  973.562  974.150
 calculate_rho_elec                1050 10.1    3.213    3.336  973.558  974.145
 cp_fm_syevd                        810 13.2    0.010    0.012  867.647  868.580
 cp_fm_redistribute_end             810 14.2  434.662  864.258  435.162  864.271
 cp_fm_syevd_base                   810 14.2  426.815  855.612  426.815  855.612
 multiply_cannon_multrec         175932 16.7  763.934  822.131  764.153  822.351
 fft3d_ps                         15534 16.8  358.708  372.748  793.657  803.028
 xc_vxc_pw_create                   601 12.6   20.438   23.817  769.052  773.207
 xc_pw_derive                      4950 14.7    0.096    0.109  722.408  728.249
 ot_mini                            973 12.0    0.009    0.011  712.073  715.136
 xc_rho_set_and_dset_create        1049 13.8    9.923   11.407  671.348  675.646
 sum_up_and_integrate               601 11.6    5.800    6.229  623.237  623.557
 integrate_v_rspace                 601 12.6    0.023    0.026  617.435  617.811
 grid_collocate_task_list          1050 11.1  532.768  571.790  532.768  571.790
 mp_waitall_1                    874501 17.8  397.188  461.779  397.188  461.779
 grid_integrate_task_list           601 13.6  430.433  456.129  430.433  456.129
 density_rs2pw                     1050 11.1    0.065    0.072  415.948  446.834
 apply_preconditioner_dbcsr         603 14.0    0.002    0.002  422.415  424.189
 apply_all                          603 15.0    0.517    0.676  422.413  424.187
 multiply_cannon_metrocomm3      175932 16.7    0.666    0.819  318.373  380.526
 ot_new_cg_direction                525 13.0    0.011    0.012  375.865  375.866
 xc_pw_divergence                   601 13.6    0.038    0.041  352.072  357.357
 qs_ot_get_derivative               525 13.0    0.006    0.010  332.674  335.253
 x_to_yz                           7803 18.5  195.125  201.172  279.564  298.791
 qs_ks_update_qs_env_forces          76  6.0    0.000    0.000  297.882  298.163
 xc_exc_calc                        448 13.0    1.335    1.344  290.442  290.443
 make_m2s                         29322 14.7    0.849    1.006  241.172  245.117
 qs_ot_get_p                       1051 11.8    0.007    0.012  209.353  214.944
 rs_pw_transfer                    8408 12.9    0.091    0.096  173.216  204.196
 init_scf_run                        77  7.0    0.002    0.004  203.327  203.369
 scf_env_initial_rho_setup           77  8.0    0.001    0.002  203.325  203.364
 wfi_extrapolate                     77  9.0    0.011    0.013  200.281  200.282
 parallel_gemm_fm                  1284 10.2    0.004    0.005  196.328  197.053
 parallel_gemm_fm_gemm             1284 11.2    0.004    0.006  196.324  197.049
 cp_fm_gemm                        1284 12.2  196.320  197.045  196.320  197.045
 xc_functional_eval                1049 14.8    0.011    0.013  188.696  191.832
 pbe_lda_eval                      1049 15.8  188.685  191.822  188.685  191.822
 make_images                      29322 15.7    3.727    3.911  178.165  181.371
 mp_alltoall_z22v                 15534 18.8  138.128  177.077  138.128  177.077
 yz_to_x                           7731 17.1  101.369  102.882  155.058  169.814
 qs_ot_get_orbitals                 973 12.0    0.007    0.009  160.373  162.044
 potential_pw2rs                    601 13.6    0.200    0.286  156.435  156.665
 cp_dbcsr_syevd                     656 13.4    0.049    0.080  139.338  139.996
 cp_fm_cholesky_reduce               78 12.0  127.164  127.235  127.164  127.235
 qs_ot_p2m_diag                     500 13.0    2.243    2.467  123.826  124.328
 pw_scatter_p                      7803 17.5   97.012  117.604   97.012  117.604
 -------------------------------------------------------------------------------

 The number of warnings for this run is : 2
 
 -------------------------------------------------------------------------------
  **** **** ******  **  PROGRAM ENDED AT                 2025-01-28 16:01:42.418
 ***** ** ***  *** **   PROGRAM RAN ON                         c0139.ten.osc.edu
 **    ****   ******    PROGRAM RAN BY                                   xiutinc
 ***** **    ** ** **   PROGRAM PROCESS ID                                367571
  **** **  *******  **  PROGRAM STOPPED IN /fs/scratch/PAS2536/xiutinc/386233.ad
                                           l02_01_02_propanol
