 DBCSR| CPU Multiplication driver                                           XSMM
 DBCSR| Multrec recursion limit                                              512
 DBCSR| Multiplication stack size                                           1000
 DBCSR| Maximum elements for images                                    UNLIMITED
 DBCSR| Multiplicative factor virtual images                                   1
 DBCSR| Use multiplication densification                                       T
 DBCSR| Multiplication size stacks                                             3
 DBCSR| Number of 3D layers                                               SINGLE
 DBCSR| Use MPI memory allocation                                              T
 DBCSR| Use RMA algorithm                                                      F
 DBCSR| Use Communication thread                                               T
 DBCSR| Communication thread load                                             87


  **** **** ******  **  PROGRAM STARTED AT               2022-07-05 19:06:15.835
 ***** ** ***  *** **   PROGRAM STARTED ON         node0222.palmetto.clemson.edu
 **    ****   ******    PROGRAM STARTED BY                               xiutinc
 ***** **    ** ** **   PROGRAM PROCESS ID                                710736
  **** **  *******  **  PROGRAM STARTED IN  /scratch1/xiutinc/CP2K-5305498.pbs02

 CP2K| version string:                                          CP2K version 7.1
 CP2K| source code revision number:                                  git:e635599
 CP2K| cp2kflags: libint fftw3 libxc parallel mpi3 scalapack xsmm               
 CP2K| is freely available from                            https://www.cp2k.org/
 CP2K| Program compiled at                          Wed Aug 12 10:01:37 EDT 2020
 CP2K| Program compiled on                           util02.palmetto.clemson.edu
 CP2K| Program compiled for                          linux-centos8-ivybridge-gcc
 CP2K| Data directory path    /software/spackages/linux-centos8-ivybridge/gcc-8.
 CP2K| Input file name                                             intE05_aq.inp

 GLOBAL| Force Environment number                                              1
 GLOBAL| Basis set file name                                          BASIS_file
 GLOBAL| Potential file name                                     POTENTIALS_file
 GLOBAL| MM Potential file name                                     MM_POTENTIAL
 GLOBAL| Coordinate file name                                    ./intE05_aq.xyz
 GLOBAL| Method name                                                        CP2K
 GLOBAL| Project name                                                  intE05_aq
 GLOBAL| Preferred FFT library                                             FFTW3
 GLOBAL| Preferred diagonalization lib.                                       SL
 GLOBAL| Run type                                                        GEO_OPT
 GLOBAL| All-to-all communication in single precision                          F
 GLOBAL| FFTs using library dependent lengths                                  F
 GLOBAL| Global print level                                                  LOW
 GLOBAL| MPI I/O enabled                                                       T
 GLOBAL| Total number of message passing processes                            24
 GLOBAL| Number of threads for this process                                    1
 GLOBAL| This output is from process                                           0
 GLOBAL| CPU model name                Intel(R) Xeon(R) CPU E5-2680 v3 @ 2.50GHz
 GLOBAL| CPUID                                                              1002
 GLOBAL| Compiled for CPUID                                                 1001

 MEMORY| system memory details [Kb]
 MEMORY|                        rank 0           min           max       average
 MEMORY| MemTotal            131661896     131661896     131661896     131661896
 MEMORY| MemFree             119889636     119869156     119889636     119882809
 MEMORY| Buffers                  6392          6392          6392          6392
 MEMORY| Cached                4232132       4232132       4232132       4232132
 MEMORY| Slab                  3291800       3291800       3291800       3291800
 MEMORY| SReclaimable          2242716       2242716       2242716       2242716
 MEMORY| MemLikelyFree       126370876     126350396     126370876     126364049


 *******************************************************************************
 *******************************************************************************
 **                                                                           **
 **     #####                         ##              ##                      **
 **    ##   ##            ##          ##              ##                      **
 **   ##     ##                       ##            ######                    **
 **   ##     ##  ##   ##  ##   #####  ##  ##   ####   ##    #####    #####    **
 **   ##     ##  ##   ##  ##  ##      ## ##   ##      ##   ##   ##  ##   ##   **
 **   ##  ## ##  ##   ##  ##  ##      ####     ###    ##   ######   ######    **
 **    ##  ###   ##   ##  ##  ##      ## ##      ##   ##   ##       ##        **
 **     #######   #####   ##   #####  ##  ##  ####    ##    #####   ##        **
 **           ##                                                    ##        **
 **                                                                           **
 **                                                ... make the atoms dance   **
 **                                                                           **
 **            Copyright (C) by CP2K developers group (2000 - 2019)           **
 **                                                                           **
 *******************************************************************************


 TOTAL NUMBERS AND MAXIMUM NUMBERS

  Total number of            - Atomic kinds:                                   5
                             - Atoms:                                        651
                             - Shell sets:                                   651
                             - Shells:                                      3154
                             - Primitive Cartesian functions:               3066
                             - Cartesian basis functions:                   8663
                             - Spherical basis functions:                   8060

  Maximum angular momentum of- Orbital basis functions:                        3
                             - Local part of the GTH pseudopotential:          2
                             - Non-local part of the GTH pseudopotential:      3


 SCF PARAMETERS         Density guess:                                   RESTART
                        --------------------------------------------------------
                        max_scf:                                             500
                        max_scf_history:                                       0
                        max_diis:                                              4
                        --------------------------------------------------------
                        eps_scf:                                        1.00E-06
                        eps_scf_history:                                0.00E+00
                        eps_diis:                                       1.00E-01
                        eps_eigval:                                     1.00E-05
                        --------------------------------------------------------
                        level_shift [a.u.]:                                 0.00
                        --------------------------------------------------------
                        Outer loop SCF in use 
                        No variables optimised in outer loop
                        eps_scf                                         1.00E-06
                        max_scf                                               50
                        No outer loop optimization
                        step_size                                       5.00E-01

 BFGS| Use rational function optimization for step estimation:                NO
 BFGS| Use model Hessian for initial guess:                                  YES
 BFGS| Restart Hessian:                                                       NO
 BFGS| Trust radius:                                                       0.472

 *******************************************************************************
 ***                     STARTING GEOMETRY OPTIMIZATION                      ***
 ***                                   BFGS                                  ***
 *******************************************************************************

 Number of electrons:                                                       3270
 Number of occupied orbitals:                                               1635
 Number of molecular orbitals:                                              1635

 Number of orbital functions:                                               8060
 Number of independent orbital functions:                                   8060

 Extrapolation method: initial_guess

 *** WARNING in qs_initial_guess.F:280 :: User requested to restart the   ***
 *** wavefunction from the file named: intE05_aq-RESTART.wfn. This file   ***
 *** does not exist. Please check the existence of the file or change     ***
 *** properly the value of the keyword WFN_RESTART_FILE_NAME. Calculation ***
 *** continues using ATOMIC GUESS.                                        ***



 SCF WAVEFUNCTION OPTIMIZATION

  ----------------------------------- OT ---------------------------------------
  Minimizer      : CG                  : conjugate gradient
  Preconditioner : FULL_ALL            : diagonalization, state selective
  Precond_solver : DEFAULT
  Line search    : 2PNT                : 2 energies, one gradient
  stepsize       :    0.15000000                  energy_gap     :    0.00100000
  eps_taylor     :   0.10000E-15                  max_taylor     :             4
  ----------------------------------- OT ---------------------------------------

  Step     Update method      Time    Convergence         Total energy    Change
  ------------------------------------------------------------------------------
     1 OT CG       0.15E+00   37.6     0.01621378     -7169.3841308080 -7.17E+03
     2 OT LS       0.63E-01    4.2                    -7070.5308102097
     3 OT CG       0.63E-01   10.8     0.07443035     -7086.4188118997  8.30E+01
     4 OT LS       0.29E-01    4.2                    -6643.8800255086
     5 OT CG       0.29E-01   10.7     0.11975256     -6754.6013976994  3.32E+02
     6 OT LS       0.15E-01    4.2                    -6917.5356902444
     7 OT CG       0.15E-01   10.7     0.05415224     -7056.0906773276 -3.01E+02
     8 OT LS       0.90E-02    4.2                    -7144.4202555548
     9 OT CG       0.90E-02   10.7     0.01558099     -7170.3792756485 -1.14E+02
    10 OT LS       0.24E-01    4.2                    -7191.3019984072
    11 OT CG       0.24E-01   11.0     0.01604952     -7201.5888077551 -3.12E+01
    12 OT LS       0.32E-01    4.2                    -7244.4546504228
    13 OT CG       0.32E-01   10.7     0.01304868     -7249.5045350764 -4.79E+01
    14 OT LS       0.17E-01    4.2                    -7256.1394272354
    15 OT CG       0.17E-01   10.7     0.01075987     -7266.4176172737 -1.69E+01
    16 OT LS       0.44E-01    4.2                    -7285.9699520806
    17 OT CG       0.44E-01   10.7     0.01459369     -7288.7434813734 -2.23E+01
    18 OT LS       0.34E-02    4.2                    -7061.6925307708
    19 OT CG       0.34E-02   10.7     0.01529233     -7291.2803937453 -2.54E+00
    20 OT LS       0.95E-02    4.2                    -7299.9954203676
    21 OT CG       0.95E-02   10.7     0.00574153     -7307.0587600237 -1.58E+01
    22 OT LS       0.38E-01    4.2                    -7310.8219573811
    23 OT CG       0.38E-01   10.7     0.00542952     -7316.3541802594 -9.30E+00
    24 OT LS       0.41E-01    4.2                    -7325.0305036892
    25 OT CG       0.41E-01   10.7     0.00519255     -7325.2700188927 -8.92E+00
    26 OT LS       0.35E-01    6.9                    -7332.3563112300
    27 OT CG       0.35E-01   10.9     0.00516065     -7332.8042951673 -7.53E+00
    28 OT LS       0.32E-01    4.2                    -7337.8180654735
    29 OT CG       0.32E-01   10.7     0.00418457     -7337.8750017007 -5.07E+00
    30 OT LS       0.29E-01    4.2                    -7341.1247878603
    31 OT CG       0.29E-01   10.7     0.00354352     -7341.1098726613 -3.23E+00
    32 OT LS       0.57E-01    4.2                    -7344.8384836280
    33 OT CG       0.57E-01   10.7     0.00359051     -7345.3912214855 -4.28E+00
    34 OT LS       0.23E-01    4.2                    -7344.1941472621
    35 OT CG       0.23E-01   10.7     0.00390299     -7346.5438708814 -1.15E+00
    36 OT LS       0.22E-01    4.2                    -7348.8032077377
    37 OT CG       0.22E-01   10.7     0.00234290     -7348.7990748457 -2.26E+00
    38 OT LS       0.79E-01    4.2                    -7350.2489121475
    39 OT CG       0.79E-01   12.0     0.00300646     -7351.2222225249 -2.42E+00
    40 OT LS       0.25E-01    6.4                    -7348.1350036175
    41 OT CG       0.25E-01   12.6     0.00330858     -7352.0500649282 -8.28E-01
    42 OT LS       0.27E-01    4.2                    -7353.9658358817
    43 OT CG       0.27E-01   10.7     0.00218921     -7353.9933794487 -1.94E+00
    44 OT LS       0.53E-01    4.2                    -7355.3339890048
    45 OT CG       0.53E-01   10.7     0.00186487     -7355.6985085097 -1.71E+00
    46 OT LS       0.78E-01    4.2                    -7357.0988654347
    47 OT CG       0.78E-01   10.7     0.00219659     -7357.2718919539 -1.57E+00
    48 OT LS       0.87E-01    4.2                    -7360.0367476219
    49 OT CG       0.87E-01   10.7     0.00258101     -7360.1170246255 -2.85E+00
    50 OT LS       0.35E-01    4.2                    -7357.9419131122
    51 OT CG       0.35E-01   10.7     0.00201871     -7362.0365791576 -1.92E+00
    52 OT LS       0.74E-01    4.2                    -7363.6010301841
    53 OT CG       0.74E-01   10.7     0.00179095     -7364.2600735718 -2.22E+00
    54 OT LS       0.80E-01    4.2                    -7365.9979358654
    55 OT CG       0.80E-01   10.7     0.00210811     -7366.0308290974 -1.77E+00
    56 OT LS       0.66E-01    4.2                    -7368.0513061191
    57 OT CG       0.66E-01   10.7     0.00212778     -7368.2263117799 -2.20E+00
    58 OT LS       0.67E-01    4.2                    -7370.1093663563
    59 OT CG       0.67E-01   10.7     0.00254536     -7370.1056778368 -1.88E+00
    60 OT LS       0.45E-01    4.2                    -7371.4843563894
    61 OT CG       0.45E-01   10.7     0.00166807     -7371.7941143407 -1.69E+00
    62 OT LS       0.85E-01    4.2                    -7373.0049084395
    63 OT CG       0.85E-01   10.7     0.00169123     -7373.2832081824 -1.49E+00
    64 OT LS       0.85E-01    4.2                    -7374.6985115369
    65 OT CG       0.85E-01   10.7     0.00175613     -7374.6982918292 -1.42E+00
    66 OT LS       0.73E-01    4.2                    -7376.1713714669
    67 OT CG       0.73E-01   10.7     0.00143093     -7376.1820635814 -1.48E+00
    68 OT LS       0.75E-01    4.2                    -7377.2385458435
    69 OT CG       0.75E-01   10.7     0.00137361     -7377.2365283373 -1.05E+00
    70 OT LS       0.84E-01    4.2                    -7378.2084913601
    71 OT CG       0.84E-01   10.7     0.00160028     -7378.2213278520 -9.85E-01
    72 OT LS       0.68E-01    4.2                    -7379.3194250271
    73 OT CG       0.68E-01   10.7     0.00132255     -7379.3498731157 -1.13E+00
    74 OT LS       0.98E-01    4.3                    -7380.4099383929
    75 OT CG       0.98E-01   10.7     0.00135311     -7380.4826315124 -1.13E+00
    76 OT LS       0.81E-01    4.2                    -7381.3285168830
    77 OT CG       0.81E-01   10.7     0.00152107     -7381.3664360665 -8.84E-01
    78 OT LS       0.67E-01    4.2                    -7382.3444622154
    79 OT CG       0.67E-01   10.7     0.00115593     -7382.3687873837 -1.00E+00
    80 OT LS       0.96E-01    4.2                    -7383.1601902395
    81 OT CG       0.96E-01   10.7     0.00118915     -7383.2207423669 -8.52E-01
    82 OT LS       0.86E-01    4.2                    -7383.9539963155
    83 OT CG       0.86E-01   10.7     0.00134746     -7383.9644621079 -7.44E-01
    84 OT LS       0.73E-01    4.2                    -7384.8049022172
    85 OT CG       0.73E-01   10.7     0.00104640     -7384.8189078197 -8.54E-01
    86 OT LS       0.99E-01    4.2                    -7385.5049054223
    87 OT CG       0.99E-01   10.7     0.00104585     -7385.5459390759 -7.27E-01
    88 OT LS       0.84E-01    4.2                    -7386.1029882012
    89 OT CG       0.84E-01   10.7     0.00113869     -7386.1244343982 -5.78E-01
    90 OT LS       0.83E-01    4.5                    -7386.8261539917
    91 OT CG       0.83E-01   10.7     0.00098529     -7386.8257158055 -7.01E-01
    92 OT LS       0.86E-01    4.2                    -7387.3902232336
    93 OT CG       0.86E-01   10.7     0.00093827     -7387.3908089536 -5.65E-01
    94 OT LS       0.91E-01    4.2                    -7387.9126047256
    95 OT CG       0.91E-01   10.7     0.00098320     -7387.9129197637 -5.22E-01
    96 OT LS       0.89E-01    4.2                    -7388.4684108813
    97 OT CG       0.89E-01   10.7     0.00098590     -7388.4683956931 -5.55E-01
    98 OT LS       0.77E-01    4.2                    -7388.9516512020
    99 OT CG       0.77E-01   10.7     0.00085487     -7388.9626013528 -4.94E-01
   100 OT LS       0.94E-01    4.2                    -7389.4047651267
   101 OT CG       0.94E-01   10.7     0.00085966     -7389.4180004285 -4.55E-01
   102 OT LS       0.87E-01    4.2                    -7389.8326408723
   103 OT CG       0.87E-01   10.7     0.00088769     -7389.8355896743 -4.18E-01
   104 OT LS       0.86E-01    4.2                    -7390.2774280549
   105 OT CG       0.86E-01   12.3     0.00080934     -7390.2773885404 -4.42E-01
   106 OT LS       0.85E-01    4.4                    -7390.6488352564
   107 OT CG       0.85E-01   10.7     0.00075781     -7390.6488396540 -3.71E-01
   108 OT LS       0.94E-01    4.2                    -7391.0025971257
   109 OT CG       0.94E-01   10.7     0.00076617     -7391.0051488274 -3.56E-01
   110 OT LS       0.91E-01    4.2                    -7391.3499113749
   111 OT CG       0.91E-01   10.7     0.00077780     -7391.3505082490 -3.45E-01
   112 OT LS       0.85E-01    4.2                    -7391.6856205775
   113 OT CG       0.85E-01   10.8     0.00070473     -7391.6869047294 -3.36E-01
   114 OT LS       0.89E-01    4.2                    -7391.9804014797
   115 OT CG       0.89E-01   10.8     0.00068885     -7391.9812020800 -2.94E-01
   116 OT LS       0.92E-01    4.2                    -7392.2677467243
   117 OT CG       0.92E-01   10.8     0.00069574     -7392.2678407252 -2.87E-01
   118 OT LS       0.90E-01    5.0                    -7392.5531742848
   119 OT CG       0.90E-01   16.7     0.00068999     -7392.5532694397 -2.85E-01
   120 OT LS       0.84E-01    4.3                    -7392.8164882526
   121 OT CG       0.84E-01   10.9     0.00063767     -7392.8175912646 -2.64E-01
   122 OT LS       0.91E-01    4.2                    -7393.0608154812
   123 OT CG       0.91E-01   10.7     0.00062604     -7393.0620479740 -2.44E-01
   124 OT LS       0.92E-01    4.2                    -7393.2996788146
   125 OT CG       0.92E-01   10.7     0.00062411     -7393.2996917200 -2.38E-01
   126 OT LS       0.91E-01    4.2                    -7393.5324955903
   127 OT CG       0.91E-01   10.8     0.00061318     -7393.5325240984 -2.33E-01
   128 OT LS       0.87E-01    4.2                    -7393.7474212024
   129 OT CG       0.87E-01   10.7     0.00057664     -7393.7478687709 -2.15E-01
   130 OT LS       0.92E-01    4.2                    -7393.9492601286
   131 OT CG       0.92E-01   10.7     0.00056695     -7393.9498454739 -2.02E-01
   132 OT LS       0.93E-01    4.2                    -7394.1459921202
   133 OT CG       0.93E-01   10.7     0.00056376     -7394.1459950712 -1.96E-01
   134 OT LS       0.91E-01    4.2                    -7394.3368711307
   135 OT CG       0.91E-01   10.7     0.00055507     -7394.3369106005 -1.91E-01
   136 OT LS       0.87E-01    4.2                    -7394.5134111308
   137 OT CG       0.87E-01   10.9     0.00052855     -7394.5138069297 -1.77E-01
   138 OT LS       0.90E-01    4.2                    -7394.6801444853
   139 OT CG       0.90E-01   10.7     0.00051604     -7394.6803502274 -1.67E-01
   140 OT LS       0.91E-01    4.2                    -7394.8398958965
   141 OT CG       0.91E-01   10.7     0.00051100     -7394.8398992148 -1.60E-01
   142 OT LS       0.91E-01    4.2                    -7394.9969383770
   143 OT CG       0.91E-01   10.7     0.00050172     -7394.9969413159 -1.57E-01
   144 OT LS       0.89E-01    4.2                    -7395.1435256957
   145 OT CG       0.89E-01   10.7     0.00048183     -7395.1436761447 -1.47E-01
   146 OT LS       0.91E-01    4.2                    -7395.2831566424
   147 OT CG       0.91E-01   10.7     0.00046746     -7395.2832793117 -1.40E-01
   148 OT LS       0.93E-01    4.2                    -7395.4165066148
   149 OT CG       0.93E-01   10.7     0.00046185     -7395.4165316477 -1.33E-01
   150 OT LS       0.93E-01    4.2                    -7395.5474721142
   151 OT CG       0.93E-01   10.7     0.00045540     -7395.5474787596 -1.31E-01
   152 OT LS       0.90E-01    4.2                    -7395.6702454225
   153 OT CG       0.90E-01   10.9     0.00044125     -7395.6704051318 -1.23E-01
   154 OT LS       0.90E-01    4.2                    -7395.7862435482
   155 OT CG       0.90E-01   10.7     0.00042873     -7395.7862447074 -1.16E-01
   156 OT LS       0.91E-01    4.2                    -7395.8968029431
   157 OT CG       0.91E-01   10.7     0.00042210     -7395.8968164833 -1.11E-01
   158 OT LS       0.92E-01    4.2                    -7396.0048116773
   159 OT CG       0.92E-01   10.7     0.00041480     -7396.0048183580 -1.08E-01
   160 OT LS       0.91E-01    4.2                    -7396.1082223613
   161 OT CG       0.91E-01   10.7     0.00040299     -7396.1082304106 -1.03E-01
   162 OT LS       0.91E-01    4.2                    -7396.2058354158
   163 OT CG       0.91E-01   10.7     0.00039283     -7396.2058354190 -9.76E-02
   164 OT LS       0.92E-01    4.2                    -7396.2998192804
   165 OT CG       0.92E-01   10.7     0.00038571     -7396.2998360517 -9.40E-02
   166 OT LS       0.93E-01    4.2                    -7396.3911276010
   167 OT CG       0.93E-01   10.7     0.00038029     -7396.3911329149 -9.13E-02
   168 OT LS       0.92E-01    4.2                    -7396.4791212347
   169 OT CG       0.92E-01   10.8     0.00037135     -7396.4791277995 -8.80E-02
   170 OT LS       0.92E-01    4.3                    -7396.5625827215
   171 OT CG       0.92E-01   10.8     0.00036330     -7396.5625854126 -8.35E-02
   172 OT LS       0.92E-01    4.2                    -7396.6429863279
   173 OT CG       0.92E-01   10.7     0.00035728     -7396.6429897145 -8.04E-02
   174 OT LS       0.92E-01    4.2                    -7396.7205844928
   175 OT CG       0.92E-01   10.7     0.00035166     -7396.7205847831 -7.76E-02
   176 OT LS       0.92E-01    4.2                    -7396.7957148754
   177 OT CG       0.92E-01   10.7     0.00034461     -7396.7957148890 -7.51E-02
   178 OT LS       0.92E-01    4.2                    -7396.8678274674
   179 OT CG       0.92E-01   10.7     0.00033629     -7396.8678274862 -7.21E-02
   180 OT LS       0.94E-01    4.2                    -7396.9375440102
   181 OT CG       0.94E-01   10.7     0.00033103     -7396.9375599724 -6.97E-02
   182 OT LS       0.93E-01    4.2                    -7397.0050230835
   183 OT CG       0.93E-01   13.1     0.00032536     -7397.0050232289 -6.75E-02
   184 OT LS       0.94E-01    4.2                    -7397.0702796246
   185 OT CG       0.94E-01   10.7     0.00031978     -7397.0702797819 -6.53E-02
   186 OT LS       0.93E-01    4.3                    -7397.1331306201
   187 OT CG       0.93E-01   10.7     0.00031297     -7397.1331311750 -6.29E-02
   188 OT LS       0.94E-01    4.2                    -7397.1936730961
   189 OT CG       0.94E-01   10.7     0.00030777     -7397.1936749128 -6.05E-02
   190 OT LS       0.94E-01    4.2                    -7397.2521090325
   191 OT CG       0.94E-01   10.7     0.00030299     -7397.2521092454 -5.84E-02
   192 OT LS       0.93E-01    4.2                    -7397.3081756970
   193 OT CG       0.93E-01   10.7     0.00029769     -7397.3081811558 -5.61E-02
   194 OT LS       0.93E-01    4.2                    -7397.3623232174
   195 OT CG       0.93E-01   10.7     0.00029128     -7397.3623232245 -5.41E-02
   196 OT LS       0.94E-01    4.2                    -7397.4146592094
   197 OT CG       0.94E-01   16.1     0.00028631     -7397.4146640448 -5.23E-02
   198 OT LS       0.94E-01    6.7                    -7397.4653596277
   199 OT CG       0.94E-01   10.7     0.00028154     -7397.4653599094 -5.07E-02
   200 OT LS       0.94E-01    4.2                    -7397.5144491352
   201 OT CG       0.94E-01   10.9     0.00027583     -7397.5144492424 -4.91E-02
   202 OT LS       0.95E-01    4.2                    -7397.5619177112
   203 OT CG       0.95E-01   10.7     0.00027120     -7397.5619204823 -4.75E-02
   204 OT LS       0.94E-01    4.2                    -7397.6075888071
   205 OT CG       0.94E-01   10.7     0.00026646     -7397.6075898956 -4.57E-02
   206 OT LS       0.94E-01    4.2                    -7397.6518026462
   207 OT CG       0.94E-01   10.8     0.00026342     -7397.6518029955 -4.42E-02
   208 OT LS       0.93E-01    4.2                    -7397.6945128237
   209 OT CG       0.93E-01   10.7     0.00025873     -7397.6945185973 -4.27E-02
   210 OT LS       0.94E-01    4.2                    -7397.7359522177
   211 OT CG       0.94E-01   10.7     0.00025482     -7397.7359535214 -4.14E-02
   212 OT LS       0.94E-01    4.2                    -7397.7760546444
   213 OT CG       0.94E-01   10.7     0.00025018     -7397.7760548301 -4.01E-02
   214 OT LS       0.95E-01    4.2                    -7397.8150771364
   215 OT CG       0.95E-01   10.7     0.00024631     -7397.8150805583 -3.90E-02
   216 OT LS       0.95E-01    4.2                    -7397.8530619215
   217 OT CG       0.95E-01   10.8     0.00024213     -7397.8530625255 -3.80E-02
   218 OT LS       0.95E-01    4.2                    -7397.8897338771
   219 OT CG       0.95E-01   10.7     0.00023806     -7397.8897338945 -3.67E-02
   220 OT LS       0.95E-01    4.2                    -7397.9251534321
   221 OT CG       0.95E-01   10.7     0.00023381     -7397.9251534532 -3.54E-02
   222 OT LS       0.95E-01    4.2                    -7397.9594017597
   223 OT CG       0.95E-01   10.7     0.00023003     -7397.9594019560 -3.42E-02
   224 OT LS       0.95E-01    4.2                    -7397.9926878985
   225 OT CG       0.95E-01   10.7     0.00022629     -7397.9926884124 -3.33E-02
   226 OT LS       0.95E-01    4.2                    -7398.0247883741
   227 OT CG       0.95E-01   10.7     0.00022369     -7398.0247887422 -3.21E-02
   228 OT LS       0.94E-01    4.2                    -7398.0558609674
   229 OT CG       0.94E-01   10.8     0.00022013     -7398.0558636141 -3.11E-02
   230 OT LS       0.95E-01    4.2                    -7398.0860832747
   231 OT CG       0.95E-01   10.8     0.00021693     -7398.0860837803 -3.02E-02
   232 OT LS       0.95E-01    4.2                    -7398.1156342147
   233 OT CG       0.95E-01   10.9     0.00021423     -7398.1156355701 -2.96E-02
   234 OT LS       0.95E-01    4.2                    -7398.1443049172
   235 OT CG       0.95E-01   10.8     0.00021130     -7398.1443056992 -2.87E-02
   236 OT LS       0.95E-01    4.2                    -7398.1722801190
   237 OT CG       0.95E-01   10.8     0.00020814     -7398.1722803958 -2.80E-02
   238 OT LS       0.95E-01    4.2                    -7398.1995172507
   239 OT CG       0.95E-01   10.8     0.00020513     -7398.1995175618 -2.72E-02
   240 OT LS       0.96E-01    4.2                    -7398.2261106735
   241 OT CG       0.96E-01   10.7     0.00020272     -7398.2261113114 -2.66E-02
   242 OT LS       0.96E-01    4.2                    -7398.2519745299
   243 OT CG       0.96E-01   10.8     0.00020003     -7398.2519749743 -2.59E-02
   244 OT LS       0.95E-01    4.2                    -7398.2771401020
   245 OT CG       0.95E-01   10.7     0.00019758     -7398.2771401061 -2.52E-02
   246 OT LS       0.95E-01    4.2                    -7398.3016497761
   247 OT CG       0.95E-01   10.8     0.00019452     -7398.3016498577 -2.45E-02
   248 OT LS       0.96E-01    4.2                    -7398.3255123325
   249 OT CG       0.96E-01   10.9     0.00019260     -7398.3255127700 -2.39E-02
   250 OT LS       0.95E-01    4.2                    -7398.3487633702
   251 OT CG       0.95E-01   10.7     0.00018971     -7398.3487642595 -2.33E-02
   252 OT LS       0.96E-01    4.2                    -7398.3714632169
   253 OT CG       0.96E-01   10.7     0.00018735     -7398.3714641413 -2.27E-02
   254 OT LS       0.96E-01    4.2                    -7398.3935964105
   255 OT CG       0.96E-01   10.8     0.00018447     -7398.3935964097 -2.21E-02
   256 OT LS       0.96E-01    4.2                    -7398.4151694691
   257 OT CG       0.96E-01   11.2     0.00018266     -7398.4151700480 -2.16E-02
   258 OT LS       0.96E-01    4.2                    -7398.4362125648
   259 OT CG       0.96E-01   10.7     0.00018051     -7398.4362131567 -2.10E-02
   260 OT LS       0.96E-01    4.2                    -7398.4567278193
   261 OT CG       0.96E-01   11.5     0.00017842     -7398.4567278686 -2.05E-02
   262 OT LS       0.96E-01    4.9                    -7398.4768011386
   263 OT CG       0.96E-01   10.7     0.00017601     -7398.4768011948 -2.01E-02
   264 OT LS       0.96E-01    4.2                    -7398.4964294019
   265 OT CG       0.96E-01   10.9     0.00017414     -7398.4964298204 -1.96E-02
   266 OT LS       0.96E-01    4.2                    -7398.5155940017
   267 OT CG       0.96E-01   10.7     0.00017262     -7398.5155941513 -1.92E-02
   268 OT LS       0.95E-01    4.2                    -7398.5342891874
   269 OT CG       0.95E-01   10.7     0.00017044     -7398.5342901290 -1.87E-02
   270 OT LS       0.96E-01    4.2                    -7398.5525704437
   271 OT CG       0.96E-01   10.7     0.00016820     -7398.5525706186 -1.83E-02
   272 OT LS       0.96E-01    4.2                    -7398.5703861928
   273 OT CG       0.96E-01   10.7     0.00016609     -7398.5703861970 -1.78E-02
   274 OT LS       0.96E-01    4.2                    -7398.5878159724
   275 OT CG       0.96E-01   12.2     0.00016448     -7398.5878161490 -1.74E-02
   276 OT LS       0.95E-01    8.5                    -7398.6048300824
   277 OT CG       0.95E-01   12.6     0.00016212     -7398.6048304363 -1.70E-02
   278 OT LS       0.96E-01    4.2                    -7398.6214570775
   279 OT CG       0.96E-01   10.7     0.00016022     -7398.6214576806 -1.66E-02
   280 OT LS       0.96E-01    4.2                    -7398.6376903988
   281 OT CG       0.96E-01   10.7     0.00015848     -7398.6376904014 -1.62E-02
   282 OT LS       0.96E-01    4.2                    -7398.6536047566
   283 OT CG       0.96E-01   10.7     0.00015692     -7398.6536048118 -1.59E-02
   284 OT LS       0.96E-01    4.2                    -7398.6691816960
   285 OT CG       0.96E-01   10.7     0.00015514     -7398.6691817410 -1.56E-02
   286 OT LS       0.96E-01    4.2                    -7398.6844258048
   287 OT CG       0.96E-01   10.7     0.00015328     -7398.6844258342 -1.52E-02
   288 OT LS       0.96E-01    4.2                    -7398.6992806830
   289 OT CG       0.96E-01   10.7     0.00015157     -7398.6992807309 -1.49E-02
   290 OT LS       0.96E-01    4.2                    -7398.7138452750
   291 OT CG       0.96E-01   10.7     0.00014987     -7398.7138453701 -1.46E-02
   292 OT LS       0.96E-01    4.2                    -7398.7280807680
   293 OT CG       0.96E-01   10.7     0.00014822     -7398.7280807705 -1.42E-02
   294 OT LS       0.96E-01    4.2                    -7398.7419932234
   295 OT CG       0.96E-01   10.7     0.00014640     -7398.7419932297 -1.39E-02
   296 OT LS       0.96E-01    4.2                    -7398.7555580114
   297 OT CG       0.96E-01   10.8     0.00014478     -7398.7555580162 -1.36E-02
   298 OT LS       0.96E-01    4.2                    -7398.7688449562
   299 OT CG       0.96E-01   10.7     0.00014330     -7398.7688449854 -1.33E-02
   300 OT LS       0.96E-01    4.2                    -7398.7818905871
   301 OT CG       0.96E-01   10.7     0.00014174     -7398.7818906497 -1.30E-02
   302 OT LS       0.96E-01    4.2                    -7398.7945977617
   303 OT CG       0.96E-01   10.7     0.00014016     -7398.7945979941 -1.27E-02
   304 OT LS       0.96E-01    4.2                    -7398.8069931607
   305 OT CG       0.96E-01   10.7     0.00013835     -7398.8069932367 -1.24E-02
   306 OT LS       0.96E-01    4.2                    -7398.8191140969
   307 OT CG       0.96E-01   10.7     0.00013683     -7398.8191142421 -1.21E-02
   308 OT LS       0.96E-01    4.2                    -7398.8309849528
   309 OT CG       0.96E-01   10.7     0.00013526     -7398.8309849683 -1.19E-02
   310 OT LS       0.96E-01    4.2                    -7398.8425913145
   311 OT CG       0.96E-01   10.7     0.00013374     -7398.8425913196 -1.16E-02
   312 OT LS       0.97E-01    4.2                    -7398.8539662716
   313 OT CG       0.97E-01   10.9     0.00013211     -7398.8539663373 -1.14E-02
   314 OT LS       0.97E-01    4.2                    -7398.8651006185
   315 OT CG       0.97E-01   10.7     0.00013097     -7398.8651007188 -1.11E-02
   316 OT LS       0.97E-01    4.2                    -7398.8760552499
   317 OT CG       0.97E-01   10.7     0.00012973     -7398.8760552604 -1.10E-02
   318 OT LS       0.97E-01    4.2                    -7398.8867587873
   319 OT CG       0.97E-01   10.8     0.00012844     -7398.8867589548 -1.07E-02
   320 OT LS       0.97E-01    4.2                    -7398.8972496526
   321 OT CG       0.97E-01   10.7     0.00012708     -7398.8972496525 -1.05E-02
   322 OT LS       0.96E-01    4.2                    -7398.9074983555
   323 OT CG       0.96E-01   10.7     0.00012600     -7398.9074984051 -1.02E-02
   324 OT LS       0.96E-01    4.2                    -7398.9175553285
   325 OT CG       0.96E-01   10.7     0.00012477     -7398.9175553651 -1.01E-02
   326 OT LS       0.96E-01    4.2                    -7398.9274263457
   327 OT CG       0.96E-01   10.7     0.00012351     -7398.9274263561 -9.87E-03
   328 OT LS       0.96E-01    4.2                    -7398.9371191337
   329 OT CG       0.96E-01   10.8     0.00012236     -7398.9371191781 -9.69E-03
   330 OT LS       0.97E-01    4.2                    -7398.9466419551
   331 OT CG       0.97E-01   10.7     0.00012131     -7398.9466419607 -9.52E-03
   332 OT LS       0.96E-01    4.2                    -7398.9559980126
   333 OT CG       0.96E-01   10.7     0.00012025     -7398.9559980137 -9.36E-03
   334 OT LS       0.96E-01    4.2                    -7398.9651748403
   335 OT CG       0.96E-01   10.8     0.00011892     -7398.9651748679 -9.18E-03
   336 OT LS       0.97E-01    4.2                    -7398.9741829761
   337 OT CG       0.97E-01   10.7     0.00011764     -7398.9741831081 -9.01E-03
   338 OT LS       0.97E-01    4.2                    -7398.9829906899
   339 OT CG       0.97E-01   10.7     0.00011654     -7398.9829907024 -8.81E-03
   340 OT LS       0.97E-01    4.2                    -7398.9916406786
   341 OT CG       0.97E-01   10.7     0.00011551     -7398.9916406821 -8.65E-03
   342 OT LS       0.97E-01    4.2                    -7399.0001422202
   343 OT CG       0.97E-01   10.7     0.00011429     -7399.0001422229 -8.50E-03
   344 OT LS       0.97E-01    4.2                    -7399.0084659918
   345 OT CG       0.97E-01   10.8     0.00011337     -7399.0084659920 -8.32E-03
   346 OT LS       0.96E-01    4.2                    -7399.0166321319
   347 OT CG       0.96E-01   10.7     0.00011231     -7399.0166322124 -8.17E-03
   348 OT LS       0.97E-01    4.2                    -7399.0246564136
   349 OT CG       0.97E-01   10.7     0.00011132     -7399.0246564239 -8.02E-03
   350 OT LS       0.97E-01    4.2                    -7399.0325430992
   351 OT CG       0.97E-01   10.7     0.00011018     -7399.0325431012 -7.89E-03
   352 OT LS       0.97E-01    4.2                    -7399.0402852217
   353 OT CG       0.97E-01   10.7     0.00010919     -7399.0402852585 -7.74E-03
   354 OT LS       0.96E-01    5.0                    -7399.0478561848
   355 OT CG       0.96E-01   15.7     0.00010804     -7399.0478563327 -7.57E-03
   356 OT LS       0.97E-01    4.2                    -7399.0553187758
   357 OT CG       0.97E-01   10.7     0.00010717     -7399.0553191023 -7.46E-03
   358 OT LS       0.96E-01    4.2                    -7399.0626047606
   359 OT CG       0.96E-01   10.7     0.00010632     -7399.0626052177 -7.29E-03
   360 OT LS       0.96E-01    4.4                    -7399.0697589607
   361 OT CG       0.96E-01   10.7     0.00010510     -7399.0697589954 -7.15E-03
   362 OT LS       0.97E-01    4.2                    -7399.0767985770
   363 OT CG       0.97E-01   10.7     0.00010420     -7399.0767989147 -7.04E-03
   364 OT LS       0.97E-01    4.2                    -7399.0837458191
   365 OT CG       0.97E-01   10.7     0.00010338     -7399.0837459130 -6.95E-03
   366 OT LS       0.97E-01    4.2                    -7399.0905875982
   367 OT CG       0.97E-01   10.7     0.00010280     -7399.0905876005 -6.84E-03
   368 OT LS       0.96E-01    4.2                    -7399.0972913618
   369 OT CG       0.96E-01   10.7     0.00010182     -7399.0972919061 -6.70E-03
   370 OT LS       0.97E-01    4.2                    -7399.1038964497
   371 OT CG       0.97E-01   10.7     0.00010088     -7399.1038965696 -6.60E-03
   372 OT LS       0.97E-01    4.2                    -7399.1103699508
   373 OT CG       0.97E-01   10.7     0.00010011     -7399.1103699699 -6.47E-03
   374 OT LS       0.97E-01    4.2                    -7399.1167460767
   375 OT CG       0.97E-01   10.7     0.00009911     -7399.1167460766 -6.38E-03
   376 OT LS       0.97E-01    4.2                    -7399.1230065443
   377 OT CG       0.97E-01   10.8     0.00009818     -7399.1230065667 -6.26E-03
   378 OT LS       0.97E-01    4.2                    -7399.1291672641
   379 OT CG       0.97E-01   10.7     0.00009740     -7399.1291673142 -6.16E-03
   380 OT LS       0.97E-01    4.2                    -7399.1352370659
   381 OT CG       0.97E-01   10.7     0.00009669     -7399.1352370705 -6.07E-03
   382 OT LS       0.97E-01    4.2                    -7399.1412177815
   383 OT CG       0.97E-01   10.7     0.00009595     -7399.1412177817 -5.98E-03
   384 OT LS       0.97E-01    4.2                    -7399.1471078071
   385 OT CG       0.97E-01   10.7     0.00009514     -7399.1471078071 -5.89E-03
   386 OT LS       0.97E-01    4.2                    -7399.1528894737
   387 OT CG       0.97E-01   10.7     0.00009442     -7399.1528894905 -5.78E-03
   388 OT LS       0.97E-01    4.2                    -7399.1585924644
   389 OT CG       0.97E-01   10.7     0.00009369     -7399.1585924756 -5.70E-03
   390 OT LS       0.97E-01    4.2                    -7399.1641976244
   391 OT CG       0.97E-01   10.7     0.00009306     -7399.1641976415 -5.61E-03
   392 OT LS       0.97E-01    4.2                    -7399.1697326305
   393 OT CG       0.97E-01   10.8     0.00009231     -7399.1697326353 -5.53E-03
   394 OT LS       0.97E-01    4.2                    -7399.1751737868
   395 OT CG       0.97E-01   10.7     0.00009145     -7399.1751737919 -5.44E-03
   396 OT LS       0.97E-01    4.2                    -7399.1805329017
   397 OT CG       0.97E-01   10.7     0.00009089     -7399.1805329665 -5.36E-03
   398 OT LS       0.97E-01    4.2                    -7399.1858086158
   399 OT CG       0.97E-01   10.7     0.00009010     -7399.1858086783 -5.28E-03
   400 OT LS       0.97E-01    4.2                    -7399.1910086822
   401 OT CG       0.97E-01   10.7     0.00008946     -7399.1910087319 -5.20E-03
   402 OT LS       0.97E-01    4.2                    -7399.1961355920
   403 OT CG       0.97E-01   10.7     0.00008875     -7399.1961355920 -5.13E-03
   404 OT LS       0.97E-01    4.2                    -7399.2011690000
   405 OT CG       0.97E-01   10.7     0.00008806     -7399.2011690341 -5.03E-03
   406 OT LS       0.97E-01    4.2                    -7399.2061435994
   407 OT CG       0.97E-01   10.7     0.00008745     -7399.2061436760 -4.97E-03
   408 OT LS       0.98E-01    4.2                    -7399.2110641039
   409 OT CG       0.98E-01   10.9     0.00008672     -7399.2110641477 -4.92E-03
   410 OT LS       0.98E-01    4.2                    -7399.2158971524
   411 OT CG       0.98E-01   10.7     0.00008621     -7399.2158971595 -4.83E-03
   412 OT LS       0.97E-01    4.2                    -7399.2206504242
   413 OT CG       0.97E-01   10.7     0.00008557     -7399.2206505465 -4.75E-03
   414 OT LS       0.97E-01    4.2                    -7399.2253251809
   415 OT CG       0.97E-01   10.7     0.00008499     -7399.2253251958 -4.67E-03
   416 OT LS       0.97E-01    4.2                    -7399.2299351123
   417 OT CG       0.97E-01   10.7     0.00008426     -7399.2299351127 -4.61E-03
   418 OT LS       0.97E-01    4.2                    -7399.2344683630
   419 OT CG       0.97E-01   13.1     0.00008367     -7399.2344683638 -4.53E-03
   420 OT LS       0.97E-01    4.2                    -7399.2389360839
   421 OT CG       0.97E-01   10.7     0.00008302     -7399.2389360861 -4.47E-03
   422 OT LS       0.97E-01    4.2                    -7399.2433471692
   423 OT CG       0.97E-01   10.7     0.00008254     -7399.2433472057 -4.41E-03
   424 OT LS       0.97E-01    4.2                    -7399.2476900575
   425 OT CG       0.97E-01   10.8     0.00008199     -7399.2476901219 -4.34E-03
   426 OT LS       0.97E-01    4.2                    -7399.2519816888
   427 OT CG       0.97E-01   10.7     0.00008142     -7399.2519816983 -4.29E-03
   428 OT LS       0.97E-01    4.2                    -7399.2562065003
   429 OT CG       0.97E-01   10.7     0.00008087     -7399.2562065155 -4.22E-03
   430 OT LS       0.97E-01    4.2                    -7399.2603772149
   431 OT CG       0.97E-01   10.8     0.00008019     -7399.2603772161 -4.17E-03
   432 OT LS       0.97E-01    4.2                    -7399.2644930449
   433 OT CG       0.97E-01   15.8     0.00007965     -7399.2644930988 -4.12E-03
   434 OT LS       0.97E-01    7.1                    -7399.2685483852
   435 OT CG       0.97E-01   10.7     0.00007915     -7399.2685483924 -4.06E-03
   436 OT LS       0.97E-01    4.2                    -7399.2725466127
   437 OT CG       0.97E-01   10.7     0.00007858     -7399.2725466220 -4.00E-03
   438 OT LS       0.97E-01    4.2                    -7399.2764920996
   439 OT CG       0.97E-01   11.0     0.00007802     -7399.2764921042 -3.95E-03
   440 OT LS       0.97E-01    4.2                    -7399.2803862214
   441 OT CG       0.97E-01   10.7     0.00007761     -7399.2803862256 -3.89E-03
   442 OT LS       0.97E-01    4.2                    -7399.2842250522
   443 OT CG       0.97E-01   10.7     0.00007698     -7399.2842251036 -3.84E-03
   444 OT LS       0.97E-01    4.2                    -7399.2880097965
   445 OT CG       0.97E-01   10.7     0.00007642     -7399.2880098119 -3.78E-03
   446 OT LS       0.97E-01    4.2                    -7399.2917534020
   447 OT CG       0.97E-01   10.7     0.00007592     -7399.2917534491 -3.74E-03
   448 OT LS       0.97E-01    4.2                    -7399.2954407114
   449 OT CG       0.97E-01   10.7     0.00007542     -7399.2954407263 -3.69E-03
   450 OT LS       0.97E-01    4.2                    -7399.2990714695
   451 OT CG       0.97E-01   10.7     0.00007490     -7399.2990714857 -3.63E-03
   452 OT LS       0.97E-01    4.2                    -7399.3026609552
   453 OT CG       0.97E-01   10.7     0.00007437     -7399.3026609745 -3.59E-03
   454 OT LS       0.97E-01    4.2                    -7399.3061920396
   455 OT CG       0.97E-01   10.7     0.00007383     -7399.3061920595 -3.53E-03
   456 OT LS       0.97E-01    4.2                    -7399.3096836898
   457 OT CG       0.97E-01   10.7     0.00007338     -7399.3096837320 -3.49E-03
   458 OT LS       0.97E-01    4.2                    -7399.3131190824
   459 OT CG       0.97E-01   10.7     0.00007286     -7399.3131191382 -3.44E-03
   460 OT LS       0.97E-01    4.2                    -7399.3165121217
   461 OT CG       0.97E-01   10.7     0.00007231     -7399.3165121326 -3.39E-03
   462 OT LS       0.97E-01    4.2                    -7399.3198497960
   463 OT CG       0.97E-01   10.7     0.00007192     -7399.3198498032 -3.34E-03
   464 OT LS       0.97E-01    4.2                    -7399.3231537701
   465 OT CG       0.97E-01   10.7     0.00007141     -7399.3231537722 -3.30E-03
   466 OT LS       0.97E-01    4.2                    -7399.3264217141
   467 OT CG       0.97E-01   10.8     0.00007098     -7399.3264217445 -3.27E-03
   468 OT LS       0.97E-01    4.2                    -7399.3296379109
   469 OT CG       0.97E-01   10.8     0.00007053     -7399.3296379566 -3.22E-03
   470 OT LS       0.97E-01    4.2                    -7399.3328270480
   471 OT CG       0.97E-01   10.7     0.00007014     -7399.3328271035 -3.19E-03
   472 OT LS       0.97E-01    4.4                    -7399.3359722239
   473 OT CG       0.97E-01   10.7     0.00006973     -7399.3359722499 -3.15E-03
   474 OT LS       0.97E-01    4.2                    -7399.3390779737
   475 OT CG       0.97E-01   10.8     0.00006936     -7399.3390779763 -3.11E-03
   476 OT LS       0.97E-01    4.2                    -7399.3421426792
   477 OT CG       0.97E-01   10.7     0.00006888     -7399.3421426984 -3.06E-03
   478 OT LS       0.97E-01    4.2                    -7399.3451744461
   479 OT CG       0.97E-01   10.7     0.00006839     -7399.3451744727 -3.03E-03
   480 OT LS       0.97E-01    4.2                    -7399.3481716168
   481 OT CG       0.97E-01   10.7     0.00006791     -7399.3481716401 -3.00E-03
   482 OT LS       0.97E-01    4.2                    -7399.3511338689
   483 OT CG       0.97E-01   10.7     0.00006752     -7399.3511338820 -2.96E-03
   484 OT LS       0.97E-01    4.2                    -7399.3540530657
   485 OT CG       0.97E-01   10.8     0.00006706     -7399.3540530936 -2.92E-03
   486 OT LS       0.97E-01    4.2                    -7399.3569354686
   487 OT CG       0.97E-01   10.7     0.00006674     -7399.3569354721 -2.88E-03
   488 OT LS       0.97E-01    4.4                    -7399.3597880429
   489 OT CG       0.97E-01   10.7     0.00006636     -7399.3597880450 -2.85E-03
   490 OT LS       0.97E-01    4.2                    -7399.3626040085
   491 OT CG       0.97E-01   10.7     0.00006605     -7399.3626040173 -2.82E-03
   492 OT LS       0.97E-01    4.2                    -7399.3653866561
   493 OT CG       0.97E-01   10.8     0.00006554     -7399.3653866737 -2.78E-03
   494 OT LS       0.97E-01    4.2                    -7399.3681443227
   495 OT CG       0.97E-01   10.7     0.00006518     -7399.3681444448 -2.76E-03
   496 OT LS       0.97E-01    4.2                    -7399.3708662181
   497 OT CG       0.97E-01   11.5     0.00006468     -7399.3708662336 -2.72E-03
   498 OT LS       0.98E-01    5.1                    -7399.3735563106
   499 OT CG       0.98E-01   10.7     0.00006429     -7399.3735563495 -2.69E-03
   500 OT LS       0.97E-01    4.2                    -7399.3762071547

  Leaving inner SCF loop after reaching   500 steps.


  Electronic density on regular grids:      -3269.9999970992        0.0000029008
  Core density on regular grids:             3269.9999998095       -0.0000001905
  Total charge density on r-space grids:        0.0000027104
  Total charge density g-space grids:           0.0000027104

  Overlap energy of the core charge distribution:               0.00000816629498
  Self energy of the core charge distribution:             -19043.76357527530490
  Core Hamiltonian energy:                                   5402.32478984447789
  Hartree energy:                                            7967.44226214737682
  Exchange-correlation energy:                              -1723.26508569685757
  Dispersion energy:                                           -2.11460634065923

  Total energy:                                             -7399.37620715467165

  outer SCF iter =    1 RMS gradient =   0.64E-04 energy =      -7399.3762071547

  ----------------------------------- OT ---------------------------------------
  Minimizer      : CG                  : conjugate gradient
  Preconditioner : FULL_ALL            : diagonalization, state selective
  Precond_solver : DEFAULT
  Line search    : 2PNT                : 2 energies, one gradient
  stepsize       :    0.15000000                  energy_gap     :    0.00100000
  eps_taylor     :   0.10000E-15                  max_taylor     :             4
  ----------------------------------- OT ---------------------------------------

  Step     Update method      Time    Convergence         Total energy    Change
  ------------------------------------------------------------------------------
     1 OT CG       0.15E+00   45.0     0.00045199     -7399.3762071752 -2.65E-03
     2 OT LS       0.25E+00    4.0                    -7399.6581140940
     3 OT CG       0.25E+00   10.6     0.00003304     -7399.7103148466 -3.34E-01
     4 OT LS       0.62E-01    4.0                    -7399.7067717166
     5 OT CG       0.62E-01   10.6     0.00001103     -7399.7107674611 -4.53E-04
     6 OT LS       0.71E-01    4.0                    -7399.7108242404
     7 OT CG       0.71E-01   11.3     0.00000305     -7399.7108251591 -5.77E-05
     8 OT LS       0.12E+00    4.8                    -7399.7108314210
     9 OT CG       0.12E+00   14.7     0.00000148     -7399.7108328300 -7.67E-06
    10 OT LS       0.92E-01    4.0                    -7399.7108339939
    11 OT CG       0.92E-01   10.6     0.00000058     -7399.7108341604 -1.33E-06

  *** SCF run converged in    11 steps ***


  Electronic density on regular grids:      -3269.9999970989        0.0000029011
  Core density on regular grids:             3269.9999998095       -0.0000001905
  Total charge density on r-space grids:        0.0000027106
  Total charge density g-space grids:           0.0000027106

  Overlap energy of the core charge distribution:               0.00000816629498
  Self energy of the core charge distribution:             -19043.76357527530490
  Core Hamiltonian energy:                                   5402.03881243044452
  Hartree energy:                                            7967.46448097085522
  Exchange-correlation energy:                              -1723.33595411205783
  Dispersion energy:                                           -2.11460634065923

  Total energy:                                             -7399.71083416042802

  outer SCF iter =    2 RMS gradient =   0.58E-06 energy =      -7399.7108341604
  outer SCF loop converged in   2 iterations or  511 steps


 ENERGY| Total FORCE_EVAL ( QS ) energy (a.u.):            -7399.710834355988482


 ATOMIC FORCES in [a.u.]

 # Atom   Kind   Element          X              Y              Z
      1      1      Ti          0.00000000     0.00000000     0.00000000
      2      2      Si          0.00000000     0.00000000     0.00000000
      3      2      Si          0.00000000     0.00000000     0.00000000
      4      2      Si          0.00000000     0.00000000     0.00000000
      5      2      Si          0.00000000     0.00000000     0.00000000
      6      2      Si          0.00000000     0.00000000     0.00000000
      7      2      Si          0.00000000     0.00000000     0.00000000
      8      2      Si          0.00000000     0.00000000     0.00000000
      9      2      Si          0.00000000     0.00000000     0.00000000
     10      2      Si          0.00000000     0.00000000     0.00000000
     11      2      Si          0.00000000     0.00000000     0.00000000
     12      2      Si          0.00000000     0.00000000     0.00000000
     13      2      Si          0.00000000     0.00000000     0.00000000
     14      2      Si          0.00000000     0.00000000     0.00000000
     15      2      Si          0.00000000     0.00000000     0.00000000
     16      2      Si          0.00000000     0.00000000     0.00000000
     17      2      Si          0.00000000     0.00000000     0.00000000
     18      2      Si          0.00000000     0.00000000     0.00000000
     19      2      Si          0.00000000     0.00000000     0.00000000
     20      2      Si          0.00000000     0.00000000     0.00000000
     21      2      Si          0.00000000     0.00000000     0.00000000
     22      2      Si          0.00000000     0.00000000     0.00000000
     23      2      Si          0.00000000     0.00000000     0.00000000
     24      2      Si          0.00000000     0.00000000     0.00000000
     25      2      Si          0.00000000     0.00000000     0.00000000
     26      2      Si          0.00000000     0.00000000     0.00000000
     27      2      Si          0.00000000     0.00000000     0.00000000
     28      2      Si          0.00000000     0.00000000     0.00000000
     29      2      Si          0.00000000     0.00000000     0.00000000
     30      2      Si          0.00000000     0.00000000     0.00000000
     31      2      Si          0.00000000     0.00000000     0.00000000
     32      2      Si          0.00000000     0.00000000     0.00000000
     33      2      Si          0.00000000     0.00000000     0.00000000
     34      2      Si          0.00000000     0.00000000     0.00000000
     35      2      Si          0.00000000     0.00000000     0.00000000
     36      2      Si          0.00000000     0.00000000     0.00000000
     37      2      Si          0.00000000     0.00000000     0.00000000
     38      2      Si          0.00000000     0.00000000     0.00000000
     39      2      Si          0.00000000     0.00000000     0.00000000
     40      2      Si          0.00000000     0.00000000     0.00000000
     41      2      Si          0.00000000     0.00000000     0.00000000
     42      2      Si          0.00000000     0.00000000     0.00000000
     43      2      Si          0.00000000     0.00000000     0.00000000
     44      2      Si          0.00000000     0.00000000     0.00000000
     45      2      Si          0.00000000     0.00000000     0.00000000
     46      2      Si          0.00000000     0.00000000     0.00000000
     47      2      Si          0.00000000     0.00000000     0.00000000
     48      2      Si          0.00000000     0.00000000     0.00000000
     49      2      Si          0.00000000     0.00000000     0.00000000
     50      2      Si          0.00000000     0.00000000     0.00000000
     51      2      Si          0.00000000     0.00000000     0.00000000
     52      2      Si          0.00000000     0.00000000     0.00000000
     53      2      Si          0.00000000     0.00000000     0.00000000
     54      2      Si          0.00000000     0.00000000     0.00000000
     55      2      Si          0.00000000     0.00000000     0.00000000
     56      2      Si          0.00000000     0.00000000     0.00000000
     57      2      Si          0.00000000     0.00000000     0.00000000
     58      2      Si          0.00000000     0.00000000     0.00000000
     59      2      Si          0.00000000     0.00000000     0.00000000
     60      2      Si          0.00000000     0.00000000     0.00000000
     61      2      Si          0.00000000     0.00000000     0.00000000
     62      2      Si          0.00000000     0.00000000     0.00000000
     63      2      Si          0.00000000     0.00000000     0.00000000
     64      2      Si          0.00000000     0.00000000     0.00000000
     65      2      Si          0.00000000     0.00000000     0.00000000
     66      2      Si          0.00000000     0.00000000     0.00000000
     67      2      Si          0.00000000     0.00000000     0.00000000
     68      2      Si          0.00000000     0.00000000     0.00000000
     69      2      Si          0.00000000     0.00000000     0.00000000
     70      2      Si          0.00000000     0.00000000     0.00000000
     71      2      Si          0.00000000     0.00000000     0.00000000
     72      2      Si          0.00000000     0.00000000     0.00000000
     73      2      Si          0.00000000     0.00000000     0.00000000
     74      2      Si          0.00000000     0.00000000     0.00000000
     75      2      Si          0.00000000     0.00000000     0.00000000
     76      2      Si          0.00000000     0.00000000     0.00000000
     77      2      Si          0.00000000     0.00000000     0.00000000
     78      2      Si          0.00000000     0.00000000     0.00000000
     79      2      Si          0.00000000     0.00000000     0.00000000
     80      2      Si          0.00000000     0.00000000     0.00000000
     81      2      Si          0.00000000     0.00000000     0.00000000
     82      2      Si          0.00000000     0.00000000     0.00000000
     83      2      Si          0.00000000     0.00000000     0.00000000
     84      2      Si          0.00000000     0.00000000     0.00000000
     85      2      Si          0.00000000     0.00000000     0.00000000
     86      2      Si          0.00000000     0.00000000     0.00000000
     87      2      Si          0.00000000     0.00000000     0.00000000
     88      2      Si          0.00000000     0.00000000     0.00000000
     89      2      Si          0.00000000     0.00000000     0.00000000
     90      2      Si          0.00000000     0.00000000     0.00000000
     91      2      Si          0.00000000     0.00000000     0.00000000
     92      2      Si          0.00000000     0.00000000     0.00000000
     93      2      Si          0.00000000     0.00000000     0.00000000
     94      2      Si          0.00000000     0.00000000     0.00000000
     95      2      Si          0.00000000     0.00000000     0.00000000
     96      2      Si          0.00000000     0.00000000     0.00000000
     97      2      Si          0.00000000     0.00000000     0.00000000
     98      2      Si          0.00000000     0.00000000     0.00000000
     99      2      Si          0.00000000     0.00000000     0.00000000
    100      2      Si          0.00000000     0.00000000     0.00000000
    101      2      Si          0.00000000     0.00000000     0.00000000
    102      2      Si          0.00000000     0.00000000     0.00000000
    103      2      Si          0.00000000     0.00000000     0.00000000
    104      2      Si          0.00000000     0.00000000     0.00000000
    105      2      Si          0.00000000     0.00000000     0.00000000
    106      2      Si          0.00000000     0.00000000     0.00000000
    107      2      Si          0.00000000     0.00000000     0.00000000
    108      2      Si          0.00000000     0.00000000     0.00000000
    109      2      Si          0.00000000     0.00000000     0.00000000
    110      2      Si          0.00000000     0.00000000     0.00000000
    111      2      Si          0.00000000     0.00000000     0.00000000
    112      2      Si          0.00000000     0.00000000     0.00000000
    113      2      Si          0.00000000     0.00000000     0.00000000
    114      2      Si          0.00000000     0.00000000     0.00000000
    115      2      Si          0.00000000     0.00000000     0.00000000
    116      2      Si          0.00000000     0.00000000     0.00000000
    117      2      Si          0.00000000     0.00000000     0.00000000
    118      2      Si          0.00000000     0.00000000     0.00000000
    119      2      Si          0.00000000     0.00000000     0.00000000
    120      2      Si          0.00000000     0.00000000     0.00000000
    121      2      Si          0.00000000     0.00000000     0.00000000
    122      2      Si          0.00000000     0.00000000     0.00000000
    123      2      Si          0.00000000     0.00000000     0.00000000
    124      2      Si          0.00000000     0.00000000     0.00000000
    125      2      Si          0.00000000     0.00000000     0.00000000
    126      2      Si          0.00000000     0.00000000     0.00000000
    127      2      Si          0.00000000     0.00000000     0.00000000
    128      2      Si          0.00000000     0.00000000     0.00000000
    129      2      Si          0.00000000     0.00000000     0.00000000
    130      2      Si          0.00000000     0.00000000     0.00000000
    131      2      Si          0.00000000     0.00000000     0.00000000
    132      2      Si          0.00000000     0.00000000     0.00000000
    133      2      Si          0.00000000     0.00000000     0.00000000
    134      2      Si          0.00000000     0.00000000     0.00000000
    135      2      Si          0.00000000     0.00000000     0.00000000
    136      2      Si          0.00000000     0.00000000     0.00000000
    137      2      Si          0.00000000     0.00000000     0.00000000
    138      2      Si          0.00000000     0.00000000     0.00000000
    139      2      Si          0.00000000     0.00000000     0.00000000
    140      2      Si          0.00000000     0.00000000     0.00000000
    141      2      Si          0.00000000     0.00000000     0.00000000
    142      2      Si          0.00000000     0.00000000     0.00000000
    143      2      Si          0.00000000     0.00000000     0.00000000
    144      2      Si          0.00000000     0.00000000     0.00000000
    145      2      Si          0.00000000     0.00000000     0.00000000
    146      2      Si          0.00000000     0.00000000     0.00000000
    147      2      Si          0.00000000     0.00000000     0.00000000
    148      2      Si          0.00000000     0.00000000     0.00000000
    149      2      Si          0.00000000     0.00000000     0.00000000
    150      2      Si          0.00000000     0.00000000     0.00000000
    151      2      Si          0.00000000     0.00000000     0.00000000
    152      2      Si          0.00000000     0.00000000     0.00000000
    153      2      Si          0.00000000     0.00000000     0.00000000
    154      2      Si          0.00000000     0.00000000     0.00000000
    155      2      Si          0.00000000     0.00000000     0.00000000
    156      2      Si          0.00000000     0.00000000     0.00000000
    157      2      Si          0.00000000     0.00000000     0.00000000
    158      2      Si          0.00000000     0.00000000     0.00000000
    159      2      Si          0.00000000     0.00000000     0.00000000
    160      2      Si          0.00000000     0.00000000     0.00000000
    161      2      Si          0.00000000     0.00000000     0.00000000
    162      2      Si          0.00000000     0.00000000     0.00000000
    163      2      Si          0.00000000     0.00000000     0.00000000
    164      2      Si          0.00000000     0.00000000     0.00000000
    165      2      Si          0.00000000     0.00000000     0.00000000
    166      2      Si          0.00000000     0.00000000     0.00000000
    167      2      Si          0.00000000     0.00000000     0.00000000
    168      2      Si          0.00000000     0.00000000     0.00000000
    169      2      Si          0.00000000     0.00000000     0.00000000
    170      2      Si          0.00000000     0.00000000     0.00000000
    171      2      Si          0.00000000     0.00000000     0.00000000
    172      2      Si          0.00000000     0.00000000     0.00000000
    173      2      Si          0.00000000     0.00000000     0.00000000
    174      2      Si          0.00000000     0.00000000     0.00000000
    175      2      Si          0.00000000     0.00000000     0.00000000
    176      2      Si          0.00000000     0.00000000     0.00000000
    177      2      Si          0.00000000     0.00000000     0.00000000
    178      2      Si          0.00000000     0.00000000     0.00000000
    179      2      Si          0.00000000     0.00000000     0.00000000
    180      2      Si          0.00000000     0.00000000     0.00000000
    181      2      Si          0.00000000     0.00000000     0.00000000
    182      2      Si          0.00000000     0.00000000     0.00000000
    183      2      Si          0.00000000     0.00000000     0.00000000
    184      2      Si          0.00000000     0.00000000     0.00000000
    185      2      Si          0.00000000     0.00000000     0.00000000
    186      2      Si          0.00000000     0.00000000     0.00000000
    187      2      Si          0.00000000     0.00000000     0.00000000
    188      2      Si          0.00000000     0.00000000     0.00000000
    189      2      Si          0.00000000     0.00000000     0.00000000
    190      2      Si          0.00000000     0.00000000     0.00000000
    191      2      Si          0.00000000     0.00000000     0.00000000
    192      3      O           0.00000000     0.00000000     0.00000000
    193      3      O           0.00000000     0.00000000     0.00000000
    194      3      O           0.00000000     0.00000000     0.00000000
    195      3      O           0.00000000     0.00000000     0.00000000
    196      3      O           0.00000000     0.00000000     0.00000000
    197      3      O           0.00000000     0.00000000     0.00000000
    198      3      O           0.00000000     0.00000000     0.00000000
    199      3      O           0.00000000     0.00000000     0.00000000
    200      3      O           0.00000000     0.00000000     0.00000000
    201      3      O           0.00000000     0.00000000     0.00000000
    202      3      O           0.00000000     0.00000000     0.00000000
    203      3      O           0.00000000     0.00000000     0.00000000
    204      3      O           0.00000000     0.00000000     0.00000000
    205      3      O           0.00000000     0.00000000     0.00000000
    206      3      O           0.00000000     0.00000000     0.00000000
    207      3      O           0.00000000     0.00000000     0.00000000
    208      3      O           0.00000000     0.00000000     0.00000000
    209      3      O           0.00000000     0.00000000     0.00000000
    210      3      O           0.00000000     0.00000000     0.00000000
    211      3      O           0.00000000     0.00000000     0.00000000
    212      3      O           0.00000000     0.00000000     0.00000000
    213      3      O           0.00000000     0.00000000     0.00000000
    214      3      O           0.00000000     0.00000000     0.00000000
    215      3      O           0.00000000     0.00000000     0.00000000
    216      3      O           0.00000000     0.00000000     0.00000000
    217      3      O           0.00000000     0.00000000     0.00000000
    218      3      O           0.00000000     0.00000000     0.00000000
    219      3      O           0.00000000     0.00000000     0.00000000
    220      3      O           0.00000000     0.00000000     0.00000000
    221      3      O           0.00000000     0.00000000     0.00000000
    222      3      O           0.00000000     0.00000000     0.00000000
    223      3      O           0.00000000     0.00000000     0.00000000
    224      3      O           0.00000000     0.00000000     0.00000000
    225      3      O           0.00000000     0.00000000     0.00000000
    226      3      O           0.00000000     0.00000000     0.00000000
    227      3      O           0.00000000     0.00000000     0.00000000
    228      3      O           0.00000000     0.00000000     0.00000000
    229      3      O           0.00000000     0.00000000     0.00000000
    230      3      O           0.00000000     0.00000000     0.00000000
    231      3      O           0.00000000     0.00000000     0.00000000
    232      3      O           0.00000000     0.00000000     0.00000000
    233      3      O           0.00000000     0.00000000     0.00000000
    234      3      O           0.00000000     0.00000000     0.00000000
    235      3      O           0.00000000     0.00000000     0.00000000
    236      3      O           0.00000000     0.00000000     0.00000000
    237      3      O           0.00000000     0.00000000     0.00000000
    238      3      O           0.00000000     0.00000000     0.00000000
    239      3      O           0.00000000     0.00000000     0.00000000
    240      3      O           0.00000000     0.00000000     0.00000000
    241      3      O           0.00000000     0.00000000     0.00000000
    242      3      O           0.00000000     0.00000000     0.00000000
    243      3      O           0.00000000     0.00000000     0.00000000
    244      3      O           0.00000000     0.00000000     0.00000000
    245      3      O           0.00000000     0.00000000     0.00000000
    246      3      O           0.00000000     0.00000000     0.00000000
    247      3      O           0.00000000     0.00000000     0.00000000
    248      3      O           0.00000000     0.00000000     0.00000000
    249      3      O           0.00000000     0.00000000     0.00000000
    250      3      O           0.00000000     0.00000000     0.00000000
    251      3      O           0.00000000     0.00000000     0.00000000
    252      3      O           0.00000000     0.00000000     0.00000000
    253      3      O           0.00000000     0.00000000     0.00000000
    254      3      O           0.00000000     0.00000000     0.00000000
    255      3      O           0.00000000     0.00000000     0.00000000
    256      3      O           0.00000000     0.00000000     0.00000000
    257      3      O           0.00000000     0.00000000     0.00000000
    258      3      O           0.00000000     0.00000000     0.00000000
    259      3      O           0.00000000     0.00000000     0.00000000
    260      3      O           0.00000000     0.00000000     0.00000000
    261      3      O           0.00000000     0.00000000     0.00000000
    262      3      O           0.00000000     0.00000000     0.00000000
    263      3      O           0.00000000     0.00000000     0.00000000
    264      3      O           0.00000000     0.00000000     0.00000000
    265      3      O           0.00000000     0.00000000     0.00000000
    266      3      O           0.00000000     0.00000000     0.00000000
    267      3      O           0.00000000     0.00000000     0.00000000
    268      3      O           0.00000000     0.00000000     0.00000000
    269      3      O           0.00000000     0.00000000     0.00000000
    270      3      O           0.00000000     0.00000000     0.00000000
    271      3      O           0.00000000     0.00000000     0.00000000
    272      3      O           0.00000000     0.00000000     0.00000000
    273      3      O           0.00000000     0.00000000     0.00000000
    274      3      O           0.00000000     0.00000000     0.00000000
    275      3      O           0.00000000     0.00000000     0.00000000
    276      3      O           0.00000000     0.00000000     0.00000000
    277      3      O           0.00000000     0.00000000     0.00000000
    278      3      O           0.00000000     0.00000000     0.00000000
    279      3      O           0.00000000     0.00000000     0.00000000
    280      3      O           0.00000000     0.00000000     0.00000000
    281      3      O           0.00000000     0.00000000     0.00000000
    282      3      O           0.00000000     0.00000000     0.00000000
    283      3      O           0.00000000     0.00000000     0.00000000
    284      3      O           0.00000000     0.00000000     0.00000000
    285      3      O           0.00000000     0.00000000     0.00000000
    286      3      O           0.00000000     0.00000000     0.00000000
    287      3      O           0.00000000     0.00000000     0.00000000
    288      3      O           0.00000000     0.00000000     0.00000000
    289      3      O           0.00000000     0.00000000     0.00000000
    290      3      O           0.00000000     0.00000000     0.00000000
    291      3      O           0.00000000     0.00000000     0.00000000
    292      3      O           0.00000000     0.00000000     0.00000000
    293      3      O           0.00000000     0.00000000     0.00000000
    294      3      O           0.00000000     0.00000000     0.00000000
    295      3      O           0.00000000     0.00000000     0.00000000
    296      3      O           0.00000000     0.00000000     0.00000000
    297      3      O           0.00000000     0.00000000     0.00000000
    298      3      O           0.00000000     0.00000000     0.00000000
    299      3      O           0.00000000     0.00000000     0.00000000
    300      3      O           0.00000000     0.00000000     0.00000000
    301      3      O           0.00000000     0.00000000     0.00000000
    302      3      O           0.00000000     0.00000000     0.00000000
    303      3      O           0.00000000     0.00000000     0.00000000
    304      3      O           0.00000000     0.00000000     0.00000000
    305      3      O           0.00000000     0.00000000     0.00000000
    306      3      O           0.00000000     0.00000000     0.00000000
    307      3      O           0.00000000     0.00000000     0.00000000
    308      3      O           0.00000000     0.00000000     0.00000000
    309      3      O           0.00000000     0.00000000     0.00000000
    310      3      O           0.00000000     0.00000000     0.00000000
    311      3      O           0.00000000     0.00000000     0.00000000
    312      3      O           0.00000000     0.00000000     0.00000000
    313      3      O           0.00000000     0.00000000     0.00000000
    314      3      O           0.00000000     0.00000000     0.00000000
    315      3      O           0.00000000     0.00000000     0.00000000
    316      3      O           0.00000000     0.00000000     0.00000000
    317      3      O           0.00000000     0.00000000     0.00000000
    318      3      O           0.00000000     0.00000000     0.00000000
    319      3      O           0.00000000     0.00000000     0.00000000
    320      3      O           0.00000000     0.00000000     0.00000000
    321      3      O           0.00000000     0.00000000     0.00000000
    322      3      O           0.00000000     0.00000000     0.00000000
    323      3      O           0.00000000     0.00000000     0.00000000
    324      3      O           0.00000000     0.00000000     0.00000000
    325      3      O           0.00000000     0.00000000     0.00000000
    326      3      O           0.00000000     0.00000000     0.00000000
    327      3      O           0.00000000     0.00000000     0.00000000
    328      3      O           0.00000000     0.00000000     0.00000000
    329      3      O           0.00000000     0.00000000     0.00000000
    330      3      O           0.00000000     0.00000000     0.00000000
    331      3      O           0.00000000     0.00000000     0.00000000
    332      3      O           0.00000000     0.00000000     0.00000000
    333      3      O           0.00000000     0.00000000     0.00000000
    334      3      O           0.00000000     0.00000000     0.00000000
    335      3      O           0.00000000     0.00000000     0.00000000
    336      3      O           0.00000000     0.00000000     0.00000000
    337      3      O           0.00000000     0.00000000     0.00000000
    338      3      O           0.00000000     0.00000000     0.00000000
    339      3      O           0.00000000     0.00000000     0.00000000
    340      3      O           0.00000000     0.00000000     0.00000000
    341      3      O           0.00000000     0.00000000     0.00000000
    342      3      O           0.00000000     0.00000000     0.00000000
    343      3      O           0.00000000     0.00000000     0.00000000
    344      3      O           0.00000000     0.00000000     0.00000000
    345      3      O           0.00000000     0.00000000     0.00000000
    346      3      O           0.00000000     0.00000000     0.00000000
    347      3      O           0.00000000     0.00000000     0.00000000
    348      3      O           0.00000000     0.00000000     0.00000000
    349      3      O           0.00000000     0.00000000     0.00000000
    350      3      O           0.00000000     0.00000000     0.00000000
    351      3      O           0.00000000     0.00000000     0.00000000
    352      3      O           0.00000000     0.00000000     0.00000000
    353      3      O           0.00000000     0.00000000     0.00000000
    354      3      O           0.00000000     0.00000000     0.00000000
    355      3      O           0.00000000     0.00000000     0.00000000
    356      3      O           0.00000000     0.00000000     0.00000000
    357      3      O           0.00000000     0.00000000     0.00000000
    358      3      O           0.00000000     0.00000000     0.00000000
    359      3      O           0.00000000     0.00000000     0.00000000
    360      3      O           0.00000000     0.00000000     0.00000000
    361      3      O           0.00000000     0.00000000     0.00000000
    362      3      O           0.00000000     0.00000000     0.00000000
    363      3      O           0.00000000     0.00000000     0.00000000
    364      3      O           0.00000000     0.00000000     0.00000000
    365      3      O           0.00000000     0.00000000     0.00000000
    366      3      O           0.00000000     0.00000000     0.00000000
    367      3      O           0.00000000     0.00000000     0.00000000
    368      3      O           0.00000000     0.00000000     0.00000000
    369      3      O           0.00000000     0.00000000     0.00000000
    370      3      O           0.00000000     0.00000000     0.00000000
    371      3      O           0.00000000     0.00000000     0.00000000
    372      3      O           0.00000000     0.00000000     0.00000000
    373      3      O           0.00000000     0.00000000     0.00000000
    374      3      O           0.00000000     0.00000000     0.00000000
    375      3      O           0.00000000     0.00000000     0.00000000
    376      3      O           0.00000000     0.00000000     0.00000000
    377      3      O           0.00000000     0.00000000     0.00000000
    378      3      O           0.00000000     0.00000000     0.00000000
    379      3      O           0.00000000     0.00000000     0.00000000
    380      3      O           0.00000000     0.00000000     0.00000000
    381      3      O           0.00000000     0.00000000     0.00000000
[...]
 flops   387 x   256 x   160         582448250880       0.0%    100.0%      0.0%
 flops   387 x   259 x   128         628558737408       0.0%    100.0%      0.0%
 flops  2010 x   259 x   131         662332080480       0.0%    100.0%      0.0%
 flops  2020 x   259 x   131         665627264960       0.0%    100.0%      0.0%
 flops     5 x    13 x   128         690576773120       0.0%    100.0%      0.0%
 flops    13 x     5 x   128         694178600960       0.0%    100.0%      0.0%
 flops   416 x   259 x   662         762195278208       0.0%    100.0%      0.0%
 flops   387 x   288 x   662         788454456192       0.0%    100.0%      0.0%
 flops   416 x   288 x   131         865037242368       0.0%    100.0%      0.0%
 flops   416 x   259 x   160         950146928640       0.0%    100.0%      0.0%
 flops   387 x   256 x   675         952815052800       0.0%    100.0%      0.0%
 flops   387 x   288 x   160         982881423360       0.0%    100.0%      0.0%
 flops  2010 x   259 x   662        1072490364960       0.0%    100.0%      0.0%
 flops  2020 x   259 x   662        1077826137920       0.0%    100.0%      0.0%
 flops   387 x   256 x   128        1242556268544       0.0%    100.0%      0.0%
 flops  2010 x   256 x   131        1309320560640       0.0%    100.0%      0.0%
 flops  2020 x   256 x   131        1315834593280       0.0%    100.0%      0.0%
 flops   416 x   256 x   662        1506733522944       0.0%    100.0%      0.0%
 flops   416 x   259 x   675        1554325718400       0.0%    100.0%      0.0%
 flops   387 x   288 x   675        1607875401600       0.0%    100.0%      0.0%
 flops    13 x    13 x   131        1868044586278       0.0%    100.0%      0.0%
 flops   416 x   256 x   160        1878282731520       0.0%    100.0%      0.0%
 flops   387 x   259 x   670        1913680510560       0.0%    100.0%      0.0%
 flops   416 x   259 x   128        2026980114432       0.0%    100.0%      0.0%
 flops   387 x   288 x   128        2096813703168       0.0%    100.0%      0.0%
 flops  2010 x   256 x   662        2120135393280       0.0%    100.0%      0.0%
 flops  2020 x   256 x   662        2130683330560       0.0%    100.0%      0.0%
 flops  2010 x   259 x   675        2187102708000       0.0%    100.0%      0.0%
 flops  2020 x   259 x   675        2197983816000       0.0%    100.0%      0.0%
 flops  2010 x   288 x   131        2209478446080       0.0%    100.0%      0.0%
 flops  2020 x   288 x   131        2220470876160       0.0%    100.0%      0.0%
 flops  2010 x   259 x   160        2426865638400       0.0%    100.0%      0.0%
 flops  2020 x   259 x   160        2438939596800       0.0%    100.0%      0.0%
 flops   416 x   288 x   662        2542612819968       0.0%    100.0%      0.0%
 flops   416 x   256 x   675        3072643891200       0.0%    100.0%      0.0%
 flops   416 x   288 x   160        3169602109440       0.0%    100.0%      0.0%
 flops  2010 x   288 x   662        3577728476160       0.0%    100.0%      0.0%
 flops  2020 x   288 x   662        3595528120320       0.0%    100.0%      0.0%
 flops   387 x   256 x   670        3783028654080       0.0%    100.0%      0.0%
 flops   416 x   256 x   128        4007003160576       0.0%    100.0%      0.0%
 flops    13 x    32 x     5        4102067985600       0.0%    100.0%      0.0%
 flops     5 x    32 x    13        4102067985600       0.0%    100.0%      0.0%
 flops  2010 x   256 x   675        4323538944000       0.0%    100.0%      0.0%
 flops  2020 x   256 x   675        4345049088000       0.0%    100.0%      0.0%
 flops  2010 x   256 x   160        4797510451200       0.0%    100.0%      0.0%
 flops  2020 x   256 x   160        4821378662400       0.0%    100.0%      0.0%
 flops  2010 x   259 x   128        5177313361920       0.0%    100.0%      0.0%
 flops   416 x   288 x   675        5185086566400       0.0%    100.0%      0.0%
 flops  2020 x   259 x   128        5203071139840       0.0%    100.0%      0.0%
 flops   416 x   259 x   670        6171248778240       0.0%    100.0%      0.0%
 flops   387 x   288 x   670        6383860853760       0.0%    100.0%      0.0%
 flops   416 x   288 x   128        6761817833472       0.0%    100.0%      0.0%
 flops    13 x    13 x   160        6844743522240       0.0%    100.0%      0.0%
 flops  2010 x   288 x   675        7295971968000       0.0%    100.0%      0.0%
 flops  2020 x   288 x   675        7332270336000       0.0%    100.0%      0.0%
 flops  2010 x   288 x   160        8095798886400       0.0%    100.0%      0.0%
 flops  2020 x   288 x   160        8136076492800       0.0%    100.0%      0.0%
 flops  2010 x   259 x   670        8683607788800       0.0%    100.0%      0.0%
 flops  2020 x   259 x   670        8726809817600       0.0%    100.0%      0.0%
 flops  2010 x   256 x   128       10234688962560       0.0%    100.0%      0.0%
 flops  2020 x   256 x   128       10285607813120       0.0%    100.0%      0.0%
 flops   416 x   256 x   670       12199534264320       0.0%    100.0%      0.0%
 flops    13 x    13 x   128       14602119514112       0.0%    100.0%      0.0%
 flops  2010 x   256 x   670       17166050918400       0.0%    100.0%      0.0%
 flops  2020 x   256 x   670       17251454156800       0.0%    100.0%      0.0%
 flops  2010 x   288 x   128       17271037624320       0.0%    100.0%      0.0%
 flops  2020 x   288 x   128       17356963184640       0.0%    100.0%      0.0%
 flops   416 x   288 x   670       20586714071040       0.0%    100.0%      0.0%
 flops  2010 x   288 x   670       28967710924800       0.0%    100.0%      0.0%
 flops  2020 x   288 x   670       29111828889600       0.0%    100.0%      0.0%
 flops    13 x    32 x    13       86055361566720       0.0%    100.0%      0.0%
 flops inhomo. stacks              20658679922400     100.0%      0.0%      0.0%
 flops total                       495.195255E+12       4.2%     95.8%      0.0%
 flops max/rank                     21.941390E+12       4.2%     95.8%      0.0%
 matmuls inhomo. stacks                     61416     100.0%      0.0%      0.0%
 matmuls total                        11022015712       0.0%    100.0%      0.0%
 number of processed stacks              15565926       0.4%     99.6%      0.0%
 average stack size                                     1.0     710.9       0.0
 marketing flops                   827.464104E+12
 -------------------------------------------------------------------------------
 # multiplications                          10239
 max memory usage/rank             903.081984E+06
 # max total images/rank                        3
 # max 3D layers                                1
 # MPI messages exchanged                 4668984
 MPI messages size (bytes):
  total size                         7.982376E+12
  min size                           0.000000E+00
  max size                          11.118080E+06
  average size                       1.709660E+06
 MPI breakdown and total messages size (bytes):
             size <=      128               20988                        0
       128 < size <=     8192                   0                        0
      8192 < size <=    32768                 792                 25952256
     32768 < size <=   131072                 396                 15416280
    131072 < size <=  4194304             4460088            5960890387760
   4194304 < size <= 16777216              186720            2021667232000
  16777216 < size                               0                        0
 -------------------------------------------------------------------------------

 *** WARNING in dbcsr_mm.F:295 :: Using a non-square number of MPI ranks ***
 *** might lead to poor performance. Used ranks: 24 Suggested: 25 49     ***

 -------------------------------------------------------------------------------
 -                                                                             -
 -                      DBCSR MESSAGE PASSING PERFORMANCE                      -
 -                                                                             -
 -------------------------------------------------------------------------------
 ROUTINE             CALLS      AVE VOLUME [Bytes]
 MP_Group             1100
 MP_Bcast              124                     12.
 MP_Allreduce        52012                    134.
 MP_Alltoall         43725                 669262.
 MP_Wait            573384
 MP_ISend           472828                 770938.
 MP_IRecv           464716                 777065.
 MP_Memory          930646
 -------------------------------------------------------------------------------

 MEMORY| Estimated peak process memory [MiB]                                 862

 -------------------------------------------------------------------------------
 -                                                                             -
 -                         MESSAGE PASSING PERFORMANCE                         -
 -                                                                             -
 -------------------------------------------------------------------------------

 ROUTINE             CALLS      AVE VOLUME [Bytes]
 MP_Group                5
 MP_Bcast            34652                 244068.
 MP_Allreduce        89768                   1219.
 MP_Sync                 5
 MP_Alltoall         11981               34222238.
 MP_SendRecv          2852                  15933.
 MP_ISendRecv        75831                 127093.
 MP_Wait            149219
 MP_ISend            65506                 800225.
 MP_IRecv            65506                 800572.
 MP_Recv              4563                1456916.
 -------------------------------------------------------------------------------


 -------------------------------------------------------------------------------
 -                                                                             -
 -                           R E F E R E N C E S                               -
 -                                                                             -
 -------------------------------------------------------------------------------
 
 CP2K version 7.1, the CP2K developers group (2019).
 CP2K is freely available from https://www.cp2k.org/ .

 Schuett, Ole; Messmer, Peter; Hutter, Juerg; VandeVondele, Joost. 
 Electronic Structure Calculations on Graphics Processing Units, John
 Wiley & Sons, Ltd, 173-190 (2016). 
 GPU-Accelerated Sparse Matrix-Matrix Multiplication for
 Linear Scaling Density Functional Theory.
 https://dx.doi.org/10.1002/9781118670712.ch8

 Borstnik, U; VandeVondele, J; Weber, V; Hutter, J. 
 PARALLEL COMPUTING, 40 (5-6), 47-58 (2014). 
 Sparse matrix multiplication: The distributed block-compressed sparse
 row library.
 https://dx.doi.org/10.1016/j.parco.2014.03.012

 Hutter, J; Iannuzzi, M; Schiffmann, F; VandeVondele, J. 
 WIREs Comput Mol Sci., 4 (1), 15-25 (2014). 
 CP2K: atomistic simulations of condensed matter systems.
 https://dx.doi.org/10.1002/wcms.1159

 Grimme, S; Ehrlich, S; Goerigk, L. 
 JOURNAL OF COMPUTATIONAL CHEMISTRY, 32, 1456 (2011). 
 Effect of the damping function in dispersion corrected density functional theory.
 https://dx.doi.org/10.1002/jcc.21759

 Grimme, S; Antony, J; Ehrlich, S; Krieg, H. 
 JOURNAL OF CHEMICAL PHYSICS, 132 (15), 154104 (2010). 
 A consistent and accurate ab initio parametrization of density
 functional dispersion correction (DFT-D) for the 94 elements H-Pu.
 https://dx.doi.org/10.1063/1.3382344

 VandeVondele, J; Hutter, J. 
 JOURNAL OF CHEMICAL PHYSICS, 127 (11), 114105 (2007). 
 Gaussian basis sets for accurate calculations on molecular systems in
 gas and condensed phases.
 https://dx.doi.org/10.1063/1.2770708

 Krack, M. 
 THEORETICAL CHEMISTRY ACCOUNTS, 114 (1-3), 145-152 (2005). 
 Pseudopotentials for H to Kr optimized for gradient-corrected
 exchange-correlation functionals.
 https://dx.doi.org/10.1007/s00214-005-0655-y

 VandeVondele, J; Krack, M; Mohamed, F; Parrinello, M; Chassaing, T;
 Hutter, J. COMPUTER PHYSICS COMMUNICATIONS, 167 (2), 103-128 (2005). 
 QUICKSTEP: Fast and accurate density functional calculations using a
 mixed Gaussian and plane waves approach.
 https://dx.doi.org/10.1016/j.cpc.2004.12.014

 Frigo, M; Johnson, SG. 
 PROCEEDINGS OF THE IEEE, 93 (2), 216-231 (2005). 
 The design and implementation of FFTW3.
 https://dx.doi.org/10.1109/JPROC.2004.840301

 Kolafa, J. 
 JOURNAL OF COMPUTATIONAL CHEMISTRY, 25 (3), 335-342 (2004). 
 Time-reversible always stable predictor-corrector method for molecular dynamics of polarizable molecules.
 https://dx.doi.org/10.1002/jcc.10385

 VandeVondele, J; Hutter, J. 
 JOURNAL OF CHEMICAL PHYSICS, 118 (10), 4365-4369 (2003). 
 An efficient orbital transformation method for electronic structure
 calculations.
 https://dx.doi.org/10.1063/1.1543154

 Hartwigsen, C; Goedecker, S; Hutter, J. 
 PHYSICAL REVIEW B, 58 (7), 3641-3662 (1998). 
 Relativistic separable dual-space Gaussian pseudopotentials from H to Rn.
 https://dx.doi.org/10.1103/PhysRevB.58.3641

 Lippert, G; Hutter, J; Parrinello, M. 
 MOLECULAR PHYSICS, 92 (3), 477-487 (1997). 
 A hybrid Gaussian and plane wave density functional scheme.
 https://dx.doi.org/10.1080/002689797170220

 Perdew, JP; Burke, K; Ernzerhof, M. 
 PHYSICAL REVIEW LETTERS, 77 (18), 3865-3868 (1996). 
 Generalized gradient approximation made simple.
 https://dx.doi.org/10.1103/PhysRevLett.77.3865

 Goedecker, S; Teter, M; Hutter, J. 
 PHYSICAL REVIEW B, 54 (3), 1703-1710 (1996). 
 Separable dual-space Gaussian pseudopotentials.
 https://dx.doi.org/10.1103/PhysRevB.54.1703


 -------------------------------------------------------------------------------
 -                                                                             -
 -                                T I M I N G                                  -
 -                                                                             -
 -------------------------------------------------------------------------------
 SUBROUTINE                       CALLS  ASD         SELF TIME        TOTAL TIME
                                MAXIMUM       AVERAGE  MAXIMUM  AVERAGE  MAXIMUM
 CP2K                                 1  1.0    0.015    0.016 6759.980 6759.987
 cp_geo_opt                           1  2.0    0.000    0.000 6758.691 6758.698
 geoopt_bfgs                          1  3.0    0.245    0.287 6758.691 6758.697
 cp_eval_at                          32  4.0    0.007    0.052 6738.147 6738.204
 qs_forces                           31  5.0    0.010    0.011 6663.645 6663.652
 qs_energies                         32  6.0    0.003    0.004 6446.853 6447.080
 scf_env_do_scf                      32  7.0    0.002    0.003 6242.183 6242.277
 scf_env_do_scf_inner_loop          680  8.0    0.027    0.057 5105.386 5111.603
 rebuild_ks_matrix                  711  9.9    0.003    0.004 2462.858 2466.552
 qs_ks_build_kohn_sham_matrix       711 10.9    0.091    0.102 2462.855 2466.548
 qs_ks_update_qs_env                713  9.0    0.005    0.006 2242.867 2246.257
 dbcsr_multiply_generic           10239 13.8    0.757    0.842 1728.938 1753.256
 qs_scf_new_mos                     680  9.0    0.005    0.013 1703.605 1712.284
 qs_scf_loop_do_ot                  680 10.0    0.004    0.007 1703.600 1712.271
 ot_scf_mini                        680 11.0    0.022    0.030 1590.837 1593.819
 multiply_cannon                  10239 14.8    2.021    2.268 1433.128 1502.701
 qs_rho_update_rho                  712  9.0    0.004    0.007 1350.752 1354.957
 calculate_rho_elec                 712 10.0  913.471  980.389 1350.748 1354.953
 multiply_cannon_multrec         122868 15.8 1227.963 1323.490 1228.073 1323.588
 sum_up_and_integrate               387 11.8    1.905    1.963 1179.895 1180.091
 integrate_v_rspace                 387 12.8 1000.921 1024.139 1177.990 1178.221
 init_scf_loop                       33  8.0    0.002    0.002 1129.525 1129.600
 qs_vxc_create                      711 11.9    0.013    0.014 1057.633 1058.238
 pw_transfer                      11729 13.3    0.907    0.988  989.407  999.942
 fft_wrap_pw1pw2                  10307 14.4    0.127    0.150  974.175  984.672
 fft_wrap_pw1pw2_180               5911 15.7   83.744   85.580  940.647  950.338
 prepare_preconditioner              33  9.0    0.000    0.001  944.759  945.198
 ot_mini                            680 12.0    0.004    0.006  934.898  939.601
 make_preconditioner                 33 10.0    0.001    0.001  913.469  913.816
 make_full_all                       33 11.0    0.056    0.080  886.348  886.398
 xc_rho_set_and_dset_create         711 13.9    5.934    6.021  757.927  765.161
 fft3d_ps                         10307 16.4  406.862  416.657  729.082  742.330
 xc_vxc_pw_create                   387 12.8   17.023   18.681  709.241  709.847
 cp_fm_syevd                        630 14.0    0.010    0.014  702.709  704.330
 cp_fm_syevd_base                   630 15.0  702.698  704.322  702.698  704.322
 apply_preconditioner_dbcsr         389 14.0    0.001    0.001  524.153  534.635
 apply_all                          389 15.0    0.960    1.010  524.152  534.634
 ot_new_cg_direction                356 13.0    0.007    0.009  493.747  493.761
 qs_ot_get_derivative               356 13.0    0.004    0.005  436.513  439.423
 density_rs2pw                      712 11.0    0.049    0.058  395.534  437.070
 xc_functional_eval                 711 14.9    0.008    0.010  345.403  352.599
 pbe_lda_eval                       711 15.9  345.396  352.593  345.396  352.593
 xc_exc_calc                        324 13.0    1.368    1.381  348.379  348.388
 qs_ot_get_p                        713 11.9    0.005    0.006  286.966  296.391
 rs_pw_transfer                    5558 13.0    0.080    0.093  208.596  249.446
 qs_ks_update_qs_env_forces          31  6.0    0.000    0.000  222.487  222.773
 mp_waitall_1                    657097 17.1  183.410  218.325  183.410  218.325
 x_to_yz                           5167 18.1  157.034  158.335  210.064  213.863
 qs_ot_get_derivative_diag          249 14.0    0.008    0.010  207.949  210.433
 qs_ot_get_orbitals                 680 12.0    0.004    0.006  204.062  207.784
 make_m2s                         20478 14.8    0.738    0.843  190.212  192.856
 qs_ot_p2m_diag                     500 13.0    7.245    7.821  162.980  164.357
 init_scf_run                        32  7.0    0.001    0.001  153.150  153.155
 scf_env_initial_rho_setup           32  8.0    0.000    0.001  153.149  153.154
 multiply_cannon_metrocomm3      122868 15.8    0.317    0.358  116.367  150.357
 wfi_extrapolate                     32  9.0    0.005    0.006  149.212  149.213
 rs_pw_transfer_RS2PW_180           744 12.9   26.676   35.423  105.607  147.506
 cp_gemm                            519 10.3    0.002    0.003  146.474  147.140
 cp_gemm_fm_gemm                    519 11.3    0.002    0.003  146.472  147.137
 cp_fm_gemm                         519 12.3  146.470  147.135  146.470  147.135
 potential_pw2rs                    387 13.8    0.147    0.206  141.971  142.201
 cp_dbcsr_syevd                     566 13.7    0.039    0.067  138.436  139.236
 mp_waitany                       65506 14.9   94.875  138.794   94.875  138.794
 make_images                      20478 15.8    3.575    3.702  133.117  135.717
 -------------------------------------------------------------------------------

 The number of warnings for this run is : 2
 
 -------------------------------------------------------------------------------
  **** **** ******  **  PROGRAM ENDED AT                 2022-07-05 20:58:56.143
 ***** ** ***  *** **   PROGRAM RAN ON             node0222.palmetto.clemson.edu
 **    ****   ******    PROGRAM RAN BY                                   xiutinc
 ***** **    ** ** **   PROGRAM PROCESS ID                                710736
  **** **  *******  **  PROGRAM STOPPED IN  /scratch1/xiutinc/CP2K-5305498.pbs02
