 DBCSR| CPU Multiplication driver                                           XSMM
 DBCSR| Multrec recursion limit                                              512
 DBCSR| Multiplication stack size                                           1000
 DBCSR| Maximum elements for images                                    UNLIMITED
 DBCSR| Multiplicative factor virtual images                                   1
 DBCSR| Use multiplication densification                                       T
 DBCSR| Multiplication size stacks                                             3
 DBCSR| Number of 3D layers                                               SINGLE
 DBCSR| Use MPI memory allocation                                              T
 DBCSR| Use RMA algorithm                                                      F
 DBCSR| Use Communication thread                                               T
 DBCSR| Communication thread load                                             87


  **** **** ******  **  PROGRAM STARTED AT               2022-07-05 19:05:33.674
 ***** ** ***  *** **   PROGRAM STARTED ON         node0251.palmetto.clemson.edu
 **    ****   ******    PROGRAM STARTED BY                               xiutinc
 ***** **    ** ** **   PROGRAM PROCESS ID                               2688933
  **** **  *******  **  PROGRAM STARTED IN  /scratch1/xiutinc/CP2K-5305492.pbs02

 CP2K| version string:                                          CP2K version 7.1
 CP2K| source code revision number:                                  git:e635599
 CP2K| cp2kflags: libint fftw3 libxc parallel mpi3 scalapack xsmm               
 CP2K| is freely available from                            https://www.cp2k.org/
 CP2K| Program compiled at                          Wed Aug 12 10:01:37 EDT 2020
 CP2K| Program compiled on                           util02.palmetto.clemson.edu
 CP2K| Program compiled for                          linux-centos8-ivybridge-gcc
 CP2K| Data directory path    /software/spackages/linux-centos8-ivybridge/gcc-8.
 CP2K| Input file name                                             intE03_aq.inp

 GLOBAL| Force Environment number                                              1
 GLOBAL| Basis set file name                                          BASIS_file
 GLOBAL| Potential file name                                     POTENTIALS_file
 GLOBAL| MM Potential file name                                     MM_POTENTIAL
 GLOBAL| Coordinate file name                                    ./intE03_aq.xyz
 GLOBAL| Method name                                                        CP2K
 GLOBAL| Project name                                                  intE03_aq
 GLOBAL| Preferred FFT library                                             FFTW3
 GLOBAL| Preferred diagonalization lib.                                       SL
 GLOBAL| Run type                                                        GEO_OPT
 GLOBAL| All-to-all communication in single precision                          F
 GLOBAL| FFTs using library dependent lengths                                  F
 GLOBAL| Global print level                                                  LOW
 GLOBAL| MPI I/O enabled                                                       T
 GLOBAL| Total number of message passing processes                            24
 GLOBAL| Number of threads for this process                                    1
 GLOBAL| This output is from process                                           0
 GLOBAL| CPU model name                Intel(R) Xeon(R) CPU E5-2680 v3 @ 2.50GHz
 GLOBAL| CPUID                                                              1002
 GLOBAL| Compiled for CPUID                                                 1001

 MEMORY| system memory details [Kb]
 MEMORY|                        rank 0           min           max       average
 MEMORY| MemTotal            131661896     131661896     131661896     131661896
 MEMORY| MemFree             119690832     119634784     119690832     119670430
 MEMORY| Buffers                  6392          6392          6392          6392
 MEMORY| Cached                5099764       5099764       5099764       5099764
 MEMORY| Slab                  2462152       2462152       2462152       2462152
 MEMORY| SReclaimable          1626296       1626296       1626296       1626296
 MEMORY| MemLikelyFree       126423284     126367236     126423284     126402882


 *******************************************************************************
 *******************************************************************************
 **                                                                           **
 **     #####                         ##              ##                      **
 **    ##   ##            ##          ##              ##                      **
 **   ##     ##                       ##            ######                    **
 **   ##     ##  ##   ##  ##   #####  ##  ##   ####   ##    #####    #####    **
 **   ##     ##  ##   ##  ##  ##      ## ##   ##      ##   ##   ##  ##   ##   **
 **   ##  ## ##  ##   ##  ##  ##      ####     ###    ##   ######   ######    **
 **    ##  ###   ##   ##  ##  ##      ## ##      ##   ##   ##       ##        **
 **     #######   #####   ##   #####  ##  ##  ####    ##    #####   ##        **
 **           ##                                                    ##        **
 **                                                                           **
 **                                                ... make the atoms dance   **
 **                                                                           **
 **            Copyright (C) by CP2K developers group (2000 - 2019)           **
 **                                                                           **
 *******************************************************************************


 TOTAL NUMBERS AND MAXIMUM NUMBERS

  Total number of            - Atomic kinds:                                   5
                             - Atoms:                                        645
                             - Shell sets:                                   645
                             - Shells:                                      3132
                             - Primitive Cartesian functions:               3036
                             - Cartesian basis functions:                   8615
                             - Spherical basis functions:                   8014

  Maximum angular momentum of- Orbital basis functions:                        3
                             - Local part of the GTH pseudopotential:          2
                             - Non-local part of the GTH pseudopotential:      3


 SCF PARAMETERS         Density guess:                                   RESTART
                        --------------------------------------------------------
                        max_scf:                                             500
                        max_scf_history:                                       0
                        max_diis:                                              4
                        --------------------------------------------------------
                        eps_scf:                                        1.00E-06
                        eps_scf_history:                                0.00E+00
                        eps_diis:                                       1.00E-01
                        eps_eigval:                                     1.00E-05
                        --------------------------------------------------------
                        level_shift [a.u.]:                                 0.00
                        --------------------------------------------------------
                        Outer loop SCF in use 
                        No variables optimised in outer loop
                        eps_scf                                         1.00E-06
                        max_scf                                               50
                        No outer loop optimization
                        step_size                                       5.00E-01

 BFGS| Use rational function optimization for step estimation:                NO
 BFGS| Use model Hessian for initial guess:                                  YES
 BFGS| Restart Hessian:                                                       NO
 BFGS| Trust radius:                                                       0.472

 *******************************************************************************
 ***                     STARTING GEOMETRY OPTIMIZATION                      ***
 ***                                   BFGS                                  ***
 *******************************************************************************

 Number of electrons:                                                       3254
 Number of occupied orbitals:                                               1627
 Number of molecular orbitals:                                              1627

 Number of orbital functions:                                               8014
 Number of independent orbital functions:                                   8014

 Extrapolation method: initial_guess

 *** WARNING in qs_initial_guess.F:280 :: User requested to restart the   ***
 *** wavefunction from the file named: intE03_aq-RESTART.wfn. This file   ***
 *** does not exist. Please check the existence of the file or change     ***
 *** properly the value of the keyword WFN_RESTART_FILE_NAME. Calculation ***
 *** continues using ATOMIC GUESS.                                        ***



 SCF WAVEFUNCTION OPTIMIZATION

  ----------------------------------- OT ---------------------------------------
  Minimizer      : CG                  : conjugate gradient
  Preconditioner : FULL_ALL            : diagonalization, state selective
  Precond_solver : DEFAULT
  Line search    : 2PNT                : 2 energies, one gradient
  stepsize       :    0.15000000                  energy_gap     :    0.00100000
  eps_taylor     :   0.10000E-15                  max_taylor     :             4
  ----------------------------------- OT ---------------------------------------

  Step     Update method      Time    Convergence         Total energy    Change
  ------------------------------------------------------------------------------
     1 OT CG       0.15E+00   37.2     0.01581390     -7136.5501345550 -7.14E+03
     2 OT LS       0.65E-01    4.1                    -7061.2675945601
     3 OT CG       0.65E-01   10.6     0.06783653     -7082.1399493838  5.44E+01
     4 OT LS       0.30E-01    4.1                    -6704.2479438021
     5 OT CG       0.30E-01   10.6     0.10322775     -6838.7791069601  2.43E+02
     6 OT LS       0.16E-01    4.3                    -6943.8723304012
     7 OT CG       0.16E-01   10.6     0.04936667     -7044.9876056747 -2.06E+02
     8 OT LS       0.93E-02    4.1                    -7106.8342074400
     9 OT CG       0.93E-02   10.6     0.01636922     -7145.1119741502 -1.00E+02
    10 OT LS       0.30E-01    4.1                    -7167.0827441011
    11 OT CG       0.30E-01   10.6     0.01909233     -7176.9759170018 -3.19E+01
    12 OT LS       0.17E-01    4.1                    -7184.6538240214
    13 OT CG       0.17E-01   10.6     0.02007446     -7202.2234050830 -2.52E+01
    14 OT LS       0.11E-01    4.1                    -7226.2220696904
    15 OT CG       0.11E-01   10.6     0.00863885     -7230.3035774241 -2.81E+01
    16 OT LS       0.46E-01    4.1                    -7240.6328365841
    17 OT CG       0.46E-01   10.6     0.00768045     -7258.9557579616 -2.87E+01
    18 OT LS       0.53E-01    4.1                    -7283.2178003146
    19 OT CG       0.53E-01   10.6     0.00472534     -7284.2863476208 -2.53E+01
    20 OT LS       0.66E-01    4.1                    -7294.4347517517
    21 OT CG       0.66E-01   10.6     0.00742003     -7294.4703475377 -1.02E+01
    22 OT LS       0.22E-01    4.1                    -7275.4109293230
    23 OT CG       0.22E-01   10.7     0.00489798     -7301.3624039230 -6.89E+00
    24 OT LS       0.26E-01    4.1                    -7305.3770727371
    25 OT CG       0.26E-01   10.6     0.00364493     -7305.5335533772 -4.17E+00
    26 OT LS       0.57E-01    4.1                    -7309.2750602972
    27 OT CG       0.57E-01   10.6     0.00447265     -7309.9215125017 -4.39E+00
    28 OT LS       0.17E-01    4.1                    -7304.4822460543
    29 OT CG       0.17E-01   10.6     0.00504600     -7311.1331882033 -1.21E+00
    30 OT LS       0.18E-01    4.1                    -7314.1470340371
    31 OT CG       0.18E-01   10.6     0.00232545     -7314.1880426297 -3.05E+00
    32 OT LS       0.71E-01    7.3                    -7315.3604795556
    33 OT CG       0.71E-01   10.6     0.00270590     -7316.6476588390 -2.46E+00
    34 OT LS       0.61E-01    4.1                    -7319.0821210577
    35 OT CG       0.61E-01   10.6     0.00279421     -7319.1192072794 -2.47E+00
    36 OT LS       0.83E-01    4.1                    -7323.0965611297
    37 OT CG       0.83E-01   10.6     0.00230070     -7323.3684523792 -4.25E+00
    38 OT LS       0.73E-01    4.1                    -7325.7846394334
    39 OT CG       0.73E-01   10.7     0.00264607     -7325.8671083503 -2.50E+00
    40 OT LS       0.52E-01    4.1                    -7327.7572613687
    41 OT CG       0.52E-01   10.6     0.00216396     -7328.0214862967 -2.15E+00
    42 OT LS       0.89E-01    4.1                    -7330.2908342911
    43 OT CG       0.89E-01   10.6     0.00250245     -7330.6412699337 -2.62E+00
    44 OT LS       0.64E-01    4.1                    -7332.5655814511
    45 OT CG       0.64E-01   11.6     0.00223199     -7332.8518508068 -2.21E+00
    46 OT LS       0.75E-01    8.7                    -7335.2501705531
    47 OT CG       0.75E-01   12.0     0.00171437     -7335.3011216013 -2.45E+00
    48 OT LS       0.10E+00    4.1                    -7337.1037877198
    49 OT CG       0.10E+00   10.6     0.00175245     -7337.2317491056 -1.93E+00
    50 OT LS       0.10E+00    4.1                    -7339.3006407832
    51 OT CG       0.10E+00   10.6     0.00172897     -7339.3058497651 -2.07E+00
    52 OT LS       0.78E-01    4.1                    -7340.6818919756
    53 OT CG       0.78E-01   10.6     0.00167019     -7340.9149609787 -1.61E+00
    54 OT LS       0.75E-01    4.2                    -7342.2665534256
    55 OT CG       0.75E-01   10.6     0.00151155     -7342.2654698581 -1.35E+00
    56 OT LS       0.96E-01    4.1                    -7343.6632801824
    57 OT CG       0.96E-01   10.6     0.00146224     -7343.7262632491 -1.46E+00
    58 OT LS       0.99E-01    4.1                    -7345.0772336757
    59 OT CG       0.99E-01   10.6     0.00152532     -7345.0766562945 -1.35E+00
    60 OT LS       0.81E-01    4.1                    -7346.2238333427
    61 OT CG       0.81E-01   10.6     0.00134969     -7346.2651814338 -1.19E+00
    62 OT LS       0.91E-01    4.1                    -7347.3563464681
    63 OT CG       0.91E-01   10.6     0.00133595     -7347.3635583655 -1.10E+00
    64 OT LS       0.86E-01    4.1                    -7348.3217559435
    65 OT CG       0.86E-01   10.6     0.00139483     -7348.3269701492 -9.63E-01
    66 OT LS       0.80E-01    4.1                    -7349.3256457653
    67 OT CG       0.80E-01   10.6     0.00117377     -7349.3279604512 -1.00E+00
    68 OT LS       0.98E-01    4.1                    -7350.1957466004
    69 OT CG       0.98E-01   10.6     0.00117783     -7350.2228806850 -8.95E-01
    70 OT LS       0.94E-01    4.4                    -7351.0527392132
    71 OT CG       0.94E-01   10.6     0.00120800     -7351.0546017318 -8.32E-01
    72 OT LS       0.80E-01    4.1                    -7351.7921138359
    73 OT CG       0.80E-01   10.6     0.00108377     -7351.8119399351 -7.57E-01
    74 OT LS       0.90E-01    4.1                    -7352.5008383153
    75 OT CG       0.90E-01   10.6     0.00106878     -7352.5075899240 -6.96E-01
    76 OT LS       0.92E-01    4.1                    -7353.1818282677
    77 OT CG       0.92E-01   10.6     0.00107091     -7353.1818446284 -6.74E-01
    78 OT LS       0.88E-01    4.1                    -7353.8336405004
    79 OT CG       0.88E-01   10.6     0.00096445     -7353.8340595843 -6.52E-01
    80 OT LS       0.94E-01    4.1                    -7354.4116836686
    81 OT CG       0.94E-01   10.6     0.00096671     -7354.4142632060 -5.80E-01
    82 OT LS       0.88E-01    4.1                    -7354.9479545246
    83 OT CG       0.88E-01   10.6     0.00095980     -7354.9517091748 -5.37E-01
    84 OT LS       0.87E-01    4.1                    -7355.4716772280
    85 OT CG       0.87E-01   10.6     0.00089952     -7355.4717075121 -5.20E-01
    86 OT LS       0.94E-01    4.1                    -7355.9650232736
    87 OT CG       0.94E-01   10.7     0.00084091     -7355.9680297460 -4.96E-01
    88 OT LS       0.99E-01    4.1                    -7356.4282093538
    89 OT CG       0.99E-01   10.6     0.00085979     -7356.4292635439 -4.61E-01
    90 OT LS       0.86E-01    4.1                    -7356.8292172769
    91 OT CG       0.86E-01   10.6     0.00083863     -7356.8405115011 -4.11E-01
    92 OT LS       0.88E-01    4.1                    -7357.2422639176
    93 OT CG       0.88E-01   10.6     0.00078389     -7357.2426170073 -4.02E-01
    94 OT LS       0.94E-01    4.1                    -7357.6195531271
    95 OT CG       0.94E-01   10.6     0.00074195     -7357.6214359444 -3.79E-01
    96 OT LS       0.99E-01    4.1                    -7357.9776048984
    97 OT CG       0.99E-01   10.6     0.00074891     -7357.9783329668 -3.57E-01
    98 OT LS       0.89E-01    4.1                    -7358.2986002586
    99 OT CG       0.89E-01   10.6     0.00073016     -7358.3029988528 -3.25E-01
   100 OT LS       0.90E-01    4.1                    -7358.6143262739
   101 OT CG       0.90E-01   10.6     0.00068268     -7358.6143499603 -3.11E-01
   102 OT LS       0.95E-01    4.1                    -7358.9023354516
   103 OT CG       0.95E-01   10.7     0.00066165     -7358.9032133140 -2.89E-01
   104 OT LS       0.97E-01    4.1                    -7359.1785925193
   105 OT CG       0.97E-01   10.6     0.00065913     -7359.1786424724 -2.75E-01
   106 OT LS       0.91E-01    4.1                    -7359.4352460864
   107 OT CG       0.91E-01   10.6     0.00063753     -7359.4361683098 -2.58E-01
   108 OT LS       0.93E-01    4.1                    -7359.6814311469
   109 OT CG       0.93E-01   10.6     0.00060545     -7359.6815034267 -2.45E-01
   110 OT LS       0.94E-01    4.1                    -7359.9075467768
   111 OT CG       0.94E-01   10.7     0.00059125     -7359.9076309744 -2.26E-01
   112 OT LS       0.94E-01    5.6                    -7360.1229119839
   113 OT CG       0.94E-01   10.6     0.00058372     -7360.1229119456 -2.15E-01
   114 OT LS       0.91E-01    4.1                    -7360.3238133976
   115 OT CG       0.91E-01   10.6     0.00056287     -7360.3241609982 -2.01E-01
   116 OT LS       0.93E-01    4.1                    -7360.5156006186
   117 OT CG       0.93E-01   10.6     0.00053809     -7360.5156991295 -1.92E-01
   118 OT LS       0.96E-01    4.1                    -7360.6960951343
   119 OT CG       0.96E-01   10.7     0.00052664     -7360.6962472079 -1.81E-01
   120 OT LS       0.95E-01    4.1                    -7360.8675120902
   121 OT CG       0.95E-01   10.6     0.00051644     -7360.8675288557 -1.71E-01
   122 OT LS       0.93E-01    4.1                    -7361.0288535862
   123 OT CG       0.93E-01   10.6     0.00050065     -7361.0289152088 -1.61E-01
   124 OT LS       0.94E-01    4.1                    -7361.1821164647
   125 OT CG       0.94E-01   11.1     0.00048235     -7361.1821318593 -1.53E-01
   126 OT LS       0.96E-01    9.3                    -7361.3271643695
   127 OT CG       0.96E-01   11.7     0.00047079     -7361.3272152394 -1.45E-01
   128 OT LS       0.95E-01    4.1                    -7361.4645519262
   129 OT CG       0.95E-01   10.6     0.00045811     -7361.4645577643 -1.37E-01
   130 OT LS       0.95E-01    4.1                    -7361.5938828889
   131 OT CG       0.95E-01   10.6     0.00044484     -7361.5938857117 -1.29E-01
   132 OT LS       0.95E-01    4.1                    -7361.7160561286
   133 OT CG       0.95E-01   10.6     0.00043050     -7361.7160566542 -1.22E-01
   134 OT LS       0.96E-01    4.1                    -7361.8317959587
   135 OT CG       0.96E-01   10.8     0.00042069     -7361.8318096104 -1.16E-01
   136 OT LS       0.95E-01    4.1                    -7361.9418408335
   137 OT CG       0.95E-01   10.6     0.00040998     -7361.9418435026 -1.10E-01
   138 OT LS       0.96E-01    4.1                    -7362.0467851393
   139 OT CG       0.96E-01   10.6     0.00039950     -7362.0467876148 -1.05E-01
   140 OT LS       0.96E-01    4.1                    -7362.1463152236
   141 OT CG       0.96E-01   10.6     0.00038958     -7362.1463152959 -9.95E-02
   142 OT LS       0.96E-01    4.1                    -7362.2412968386
   143 OT CG       0.96E-01   10.6     0.00038058     -7362.2412977283 -9.50E-02
   144 OT LS       0.96E-01    4.1                    -7362.3319333036
   145 OT CG       0.96E-01   10.6     0.00037128     -7362.3319333087 -9.06E-02
   146 OT LS       0.96E-01    4.1                    -7362.4185447487
   147 OT CG       0.96E-01   10.6     0.00036299     -7362.4185464092 -8.66E-02
   148 OT LS       0.95E-01    4.1                    -7362.5004366598
   149 OT CG       0.95E-01   10.6     0.00035434     -7362.5004460944 -8.19E-02
   150 OT LS       0.95E-01    4.1                    -7362.5785682181
   151 OT CG       0.95E-01   10.8     0.00034578     -7362.5785682651 -7.81E-02
   152 OT LS       0.96E-01    4.1                    -7362.6536405639
   153 OT CG       0.96E-01   10.6     0.00033751     -7362.6536466426 -7.51E-02
   154 OT LS       0.97E-01    4.1                    -7362.7258821743
   155 OT CG       0.97E-01   10.6     0.00033044     -7362.7258894301 -7.22E-02
   156 OT LS       0.96E-01    4.1                    -7362.7944946552
   157 OT CG       0.96E-01   10.6     0.00032430     -7362.7945004867 -6.86E-02
   158 OT LS       0.96E-01    4.1                    -7362.8605286990
   159 OT CG       0.96E-01   10.6     0.00031693     -7362.8605287583 -6.60E-02
   160 OT LS       0.97E-01    4.1                    -7362.9242946603
   161 OT CG       0.97E-01   10.6     0.00031052     -7362.9243024753 -6.38E-02
   162 OT LS       0.98E-01    4.1                    -7362.9860173426
   163 OT CG       0.98E-01   10.6     0.00030402     -7362.9860213692 -6.17E-02
   164 OT LS       0.97E-01    4.1                    -7363.0447448163
   165 OT CG       0.97E-01   10.6     0.00029878     -7363.0447480661 -5.87E-02
   166 OT LS       0.97E-01    4.1                    -7363.1011944301
   167 OT CG       0.97E-01   10.8     0.00029266     -7363.1011958098 -5.64E-02
   168 OT LS       0.97E-01    4.1                    -7363.1555846462
   169 OT CG       0.97E-01   10.6     0.00028671     -7363.1555856021 -5.44E-02
   170 OT LS       0.98E-01    4.1                    -7363.2082643475
   171 OT CG       0.98E-01   10.6     0.00028141     -7363.2082687816 -5.27E-02
   172 OT LS       0.98E-01    4.1                    -7363.2589398401
   173 OT CG       0.98E-01   10.6     0.00027671     -7363.2589399932 -5.07E-02
   174 OT LS       0.98E-01    4.2                    -7363.3076871473
   175 OT CG       0.98E-01   10.6     0.00027271     -7363.3076884664 -4.87E-02
   176 OT LS       0.97E-01    4.1                    -7363.3548572658
   177 OT CG       0.97E-01   10.6     0.00026767     -7363.3548579658 -4.72E-02
   178 OT LS       0.98E-01    4.1                    -7363.4005931367
   179 OT CG       0.98E-01   10.6     0.00026304     -7363.4005950480 -4.57E-02
   180 OT LS       0.98E-01    4.1                    -7363.4446529903
   181 OT CG       0.98E-01   10.6     0.00025870     -7363.4446532981 -4.41E-02
   182 OT LS       0.97E-01    4.1                    -7363.4870735205
   183 OT CG       0.97E-01   10.9     0.00025384     -7363.4870744621 -4.24E-02
   184 OT LS       0.97E-01    4.1                    -7363.5278739419
   185 OT CG       0.97E-01   10.6     0.00024957     -7363.5278740017 -4.08E-02
   186 OT LS       0.97E-01    4.1                    -7363.5671031873
   187 OT CG       0.97E-01   10.6     0.00024472     -7363.5671042667 -3.92E-02
   188 OT LS       0.97E-01    4.1                    -7363.6051349003
   189 OT CG       0.97E-01   10.6     0.00024023     -7363.6051375438 -3.80E-02
   190 OT LS       0.98E-01    4.1                    -7363.6418652686
   191 OT CG       0.98E-01   13.6     0.00023600     -7363.6418654041 -3.67E-02
   192 OT LS       0.98E-01    4.1                    -7363.6773407789
   193 OT CG       0.98E-01   10.6     0.00023199     -7363.6773407972 -3.55E-02
   194 OT LS       0.98E-01    4.1                    -7363.7116227748
   195 OT CG       0.98E-01   10.6     0.00022858     -7363.7116227739 -3.43E-02
   196 OT LS       0.97E-01    4.1                    -7363.7447901986
   197 OT CG       0.97E-01   10.6     0.00022473     -7363.7447905828 -3.32E-02
   198 OT LS       0.98E-01    4.1                    -7363.7770341900
   199 OT CG       0.98E-01   10.8     0.00022053     -7363.7770352370 -3.22E-02
   200 OT LS       0.99E-01    4.1                    -7363.8083169827
   201 OT CG       0.99E-01   10.6     0.00021706     -7363.8083186698 -3.13E-02
   202 OT LS       0.99E-01    4.1                    -7363.8385970886
   203 OT CG       0.99E-01   10.6     0.00021410     -7363.8385971232 -3.03E-02
   204 OT LS       0.98E-01    4.2                    -7363.8678211269
   205 OT CG       0.98E-01   17.5     0.00021079     -7363.8678229767 -2.92E-02
   206 OT LS       0.98E-01    5.0                    -7363.8962273054
   207 OT CG       0.98E-01   10.6     0.00020729     -7363.8962275124 -2.84E-02
   208 OT LS       0.99E-01    4.1                    -7363.9238682243
   209 OT CG       0.99E-01   10.6     0.00020409     -7363.9238692611 -2.76E-02
   210 OT LS       0.99E-01    4.1                    -7363.9507398904
   211 OT CG       0.99E-01   10.6     0.00020151     -7363.9507400947 -2.69E-02
   212 OT LS       0.98E-01    4.1                    -7363.9767316261
   213 OT CG       0.98E-01   10.6     0.00019902     -7363.9767332414 -2.60E-02
   214 OT LS       0.98E-01    4.1                    -7364.0019321134
   215 OT CG       0.98E-01   10.7     0.00019624     -7364.0019330519 -2.52E-02
   216 OT LS       0.98E-01    4.1                    -7364.0265271134
   217 OT CG       0.98E-01   10.6     0.00019296     -7364.0265274471 -2.46E-02
   218 OT LS       0.99E-01    4.1                    -7364.0504789877
   219 OT CG       0.99E-01   10.6     0.00019032     -7364.0504801888 -2.40E-02
   220 OT LS       0.98E-01    4.1                    -7364.0736957068
   221 OT CG       0.98E-01   10.6     0.00018744     -7364.0736960251 -2.32E-02
   222 OT LS       0.98E-01    4.1                    -7364.0962048562
   223 OT CG       0.98E-01   10.6     0.00018503     -7364.0962048601 -2.25E-02
   224 OT LS       0.98E-01    4.1                    -7364.1180403220
   225 OT CG       0.98E-01   10.6     0.00018229     -7364.1180407810 -2.18E-02
   226 OT LS       0.98E-01    4.1                    -7364.1392672767
   227 OT CG       0.98E-01   10.6     0.00017953     -7364.1392673178 -2.12E-02
   228 OT LS       0.99E-01    4.1                    -7364.1600053058
   229 OT CG       0.99E-01   10.6     0.00017671     -7364.1600064112 -2.07E-02
   230 OT LS       0.99E-01    4.1                    -7364.1802031688
   231 OT CG       0.99E-01   10.8     0.00017430     -7364.1802037121 -2.02E-02
   232 OT LS       0.99E-01    4.1                    -7364.1998023197
   233 OT CG       0.99E-01   10.6     0.00017231     -7364.1998024625 -1.96E-02
   234 OT LS       0.98E-01    4.1                    -7364.2188194036
   235 OT CG       0.98E-01   10.6     0.00016992     -7364.2188203963 -1.90E-02
   236 OT LS       0.99E-01    4.1                    -7364.2373710115
   237 OT CG       0.99E-01   10.6     0.00016741     -7364.2373711721 -1.86E-02
   238 OT LS       0.99E-01    4.1                    -7364.2554248181
   239 OT CG       0.99E-01   10.6     0.00016512     -7364.2554249457 -1.81E-02
   240 OT LS       0.99E-01    4.1                    -7364.2730153853
   241 OT CG       0.99E-01   10.6     0.00016322     -7364.2730154262 -1.76E-02
   242 OT LS       0.98E-01    4.1                    -7364.2900479303
   243 OT CG       0.98E-01   10.6     0.00016099     -7364.2900493772 -1.70E-02
   244 OT LS       0.98E-01    4.1                    -7364.3066129142
   245 OT CG       0.98E-01   10.6     0.00015863     -7364.3066129185 -1.66E-02
   246 OT LS       0.98E-01    4.1                    -7364.3227496958
   247 OT CG       0.98E-01   10.9     0.00015615     -7364.3227498796 -1.61E-02
   248 OT LS       0.99E-01    4.1                    -7364.3384189058
   249 OT CG       0.99E-01   10.6     0.00015432     -7364.3384189788 -1.57E-02
   250 OT LS       0.98E-01    4.1                    -7364.3536092349
   251 OT CG       0.98E-01   10.6     0.00015224     -7364.3536100725 -1.52E-02
   252 OT LS       0.98E-01    4.1                    -7364.3684424037
   253 OT CG       0.98E-01   10.6     0.00015012     -7364.3684425431 -1.48E-02
   254 OT LS       0.99E-01    4.1                    -7364.3829497550
   255 OT CG       0.99E-01   10.6     0.00014827     -7364.3829502580 -1.45E-02
   256 OT LS       0.98E-01    4.1                    -7364.3970507101
   257 OT CG       0.98E-01   10.6     0.00014638     -7364.3970508988 -1.41E-02
   258 OT LS       0.99E-01    4.1                    -7364.4108218610
   259 OT CG       0.99E-01   10.6     0.00014433     -7364.4108219210 -1.38E-02
   260 OT LS       0.98E-01    4.1                    -7364.4241958161
   261 OT CG       0.98E-01   10.6     0.00014243     -7364.4241958370 -1.34E-02
   262 OT LS       0.99E-01    4.1                    -7364.4372665280
   263 OT CG       0.99E-01   10.6     0.00014050     -7364.4372666929 -1.31E-02
   264 OT LS       0.99E-01    4.4                    -7364.4499775052
   265 OT CG       0.99E-01   10.6     0.00013869     -7364.4499775100 -1.27E-02
   266 OT LS       0.99E-01    4.1                    -7364.4623788079
   267 OT CG       0.99E-01   10.6     0.00013689     -7364.4623788287 -1.24E-02
   268 OT LS       0.99E-01    4.1                    -7364.4744762423
   269 OT CG       0.99E-01   10.6     0.00013524     -7364.4744762587 -1.21E-02
   270 OT LS       0.99E-01    4.1                    -7364.4863135043
   271 OT CG       0.99E-01   12.4     0.00013375     -7364.4863135830 -1.18E-02
   272 OT LS       0.99E-01    4.1                    -7364.4978138903
   273 OT CG       0.99E-01   10.6     0.00013223     -7364.4978144070 -1.15E-02
   274 OT LS       0.99E-01    4.1                    -7364.5091013914
   275 OT CG       0.99E-01   10.6     0.00013051     -7364.5091015782 -1.13E-02
   276 OT LS       0.99E-01    4.1                    -7364.5200840480
   277 OT CG       0.99E-01   10.6     0.00012940     -7364.5200840658 -1.10E-02
   278 OT LS       0.98E-01    4.1                    -7364.5308283463
   279 OT CG       0.98E-01   10.6     0.00012779     -7364.5308286044 -1.07E-02
   280 OT LS       0.98E-01    4.4                    -7364.5412607395
   281 OT CG       0.98E-01   10.6     0.00012624     -7364.5412609383 -1.04E-02
   282 OT LS       0.98E-01    4.1                    -7364.5514678304
   283 OT CG       0.98E-01   10.6     0.00012453     -7364.5514678982 -1.02E-02
   284 OT LS       0.99E-01    5.4                    -7364.5614545198
   285 OT CG       0.99E-01   16.2     0.00012306     -7364.5614547992 -9.99E-03
   286 OT LS       0.99E-01    4.2                    -7364.5711834073
   287 OT CG       0.99E-01   10.6     0.00012176     -7364.5711834657 -9.73E-03
   288 OT LS       0.99E-01    4.1                    -7364.5807024786
   289 OT CG       0.99E-01   10.6     0.00012038     -7364.5807024804 -9.52E-03
   290 OT LS       0.99E-01    4.1                    -7364.5900176972
   291 OT CG       0.99E-01   10.6     0.00011917     -7364.5900177109 -9.32E-03
   292 OT LS       0.99E-01    4.1                    -7364.5992058240
   293 OT CG       0.99E-01   10.6     0.00011767     -7364.5992061812 -9.19E-03
   294 OT LS       0.10E+00    4.1                    -7364.6082264176
   295 OT CG       0.10E+00   10.9     0.00011654     -7364.6082268364 -9.02E-03
   296 OT LS       0.10E+00    4.1                    -7364.6170408179
   297 OT CG       0.10E+00   10.6     0.00011545     -7364.6170409482 -8.81E-03
   298 OT LS       0.99E-01    4.1                    -7364.6256669951
   299 OT CG       0.99E-01   10.6     0.00011428     -7364.6256670584 -8.63E-03
   300 OT LS       0.99E-01    4.1                    -7364.6341270671
   301 OT CG       0.99E-01   10.6     0.00011319     -7364.6341270717 -8.46E-03
   302 OT LS       0.10E+00    4.1                    -7364.6424447639
   303 OT CG       0.10E+00   10.6     0.00011233     -7364.6424448033 -8.32E-03
   304 OT LS       0.99E-01    4.1                    -7364.6505928261
   305 OT CG       0.99E-01   10.6     0.00011132     -7364.6505930584 -8.15E-03
   306 OT LS       0.99E-01    4.1                    -7364.6585901325
   307 OT CG       0.99E-01   10.6     0.00011035     -7364.6585901360 -8.00E-03
   308 OT LS       0.99E-01    4.1                    -7364.6664598681
   309 OT CG       0.99E-01   10.6     0.00010907     -7364.6664598805 -7.87E-03
   310 OT LS       0.10E+00    4.1                    -7364.6741860201
   311 OT CG       0.10E+00   10.6     0.00010808     -7364.6741862036 -7.73E-03
   312 OT LS       0.99E-01    4.4                    -7364.6817372293
   313 OT CG       0.99E-01   10.6     0.00010696     -7364.6817373834 -7.55E-03
   314 OT LS       0.99E-01    4.1                    -7364.6891057870
   315 OT CG       0.99E-01   10.6     0.00010606     -7364.6891058890 -7.37E-03
   316 OT LS       0.98E-01    4.1                    -7364.6963140463
   317 OT CG       0.98E-01   10.6     0.00010484     -7364.6963142483 -7.21E-03
   318 OT LS       0.99E-01    4.1                    -7364.7034310078
   319 OT CG       0.99E-01   10.6     0.00010383     -7364.7034317781 -7.12E-03
   320 OT LS       0.99E-01    4.1                    -7364.7103982132
   321 OT CG       0.99E-01   10.6     0.00010291     -7364.7103982400 -6.97E-03
   322 OT LS       0.99E-01    4.1                    -7364.7172416790
   323 OT CG       0.99E-01   10.6     0.00010208     -7364.7172416790 -6.84E-03
   324 OT LS       0.99E-01    4.1                    -7364.7239481312
   325 OT CG       0.99E-01   10.6     0.00010108     -7364.7239482538 -6.71E-03
   326 OT LS       0.99E-01    4.1                    -7364.7305546999
   327 OT CG       0.99E-01   10.6     0.00010005     -7364.7305548384 -6.61E-03
   328 OT LS       0.99E-01    4.1                    -7364.7370254206
   329 OT CG       0.99E-01   10.8     0.00009892     -7364.7370254212 -6.47E-03
   330 OT LS       0.99E-01    4.1                    -7364.7433641817
   331 OT CG       0.99E-01   10.6     0.00009801     -7364.7433642188 -6.34E-03
   332 OT LS       0.99E-01    4.1                    -7364.7495867020
   333 OT CG       0.99E-01   10.6     0.00009712     -7364.7495867020 -6.22E-03
   334 OT LS       0.99E-01    4.1                    -7364.7556833755
   335 OT CG       0.99E-01   10.6     0.00009633     -7364.7556834091 -6.10E-03
   336 OT LS       0.99E-01    4.1                    -7364.7616714720
   337 OT CG       0.99E-01   10.6     0.00009532     -7364.7616714895 -5.99E-03
   338 OT LS       0.10E+00    4.1                    -7364.7675730828
   339 OT CG       0.10E+00   10.6     0.00009457     -7364.7675733483 -5.90E-03
   340 OT LS       0.99E-01    4.1                    -7364.7733579392
   341 OT CG       0.99E-01   10.6     0.00009375     -7364.7733580476 -5.78E-03
   342 OT LS       0.99E-01    4.1                    -7364.7790233991
   343 OT CG       0.99E-01   10.6     0.00009300     -7364.7790234673 -5.67E-03
   344 OT LS       0.99E-01    4.1                    -7364.7845811850
   345 OT CG       0.99E-01   10.8     0.00009214     -7364.7845812433 -5.56E-03
   346 OT LS       0.99E-01    4.1                    -7364.7900506379
   347 OT CG       0.99E-01   10.6     0.00009117     -7364.7900506768 -5.47E-03
   348 OT LS       0.99E-01    4.1                    -7364.7954397942
   349 OT CG       0.99E-01   10.6     0.00009037     -7364.7954400152 -5.39E-03
   350 OT LS       0.10E+00    4.1                    -7364.8007386460
   351 OT CG       0.10E+00   11.9     0.00008970     -7364.8007386473 -5.30E-03
   352 OT LS       0.99E-01    4.1                    -7364.8059459497
   353 OT CG       0.99E-01   10.6     0.00008883     -7364.8059459835 -5.21E-03
   354 OT LS       0.99E-01    4.1                    -7364.8110630751
   355 OT CG       0.99E-01   10.6     0.00008808     -7364.8110630984 -5.12E-03
   356 OT LS       0.10E+00    4.1                    -7364.8160964874
   357 OT CG       0.10E+00   10.6     0.00008717     -7364.8160964881 -5.03E-03
   358 OT LS       0.10E+00    4.1                    -7364.8210343234
   359 OT CG       0.10E+00   10.6     0.00008647     -7364.8210343354 -4.94E-03
   360 OT LS       0.10E+00    4.1                    -7364.8258893618
   361 OT CG       0.10E+00   10.7     0.00008554     -7364.8258893658 -4.86E-03
   362 OT LS       0.10E+00    4.1                    -7364.8306560793
   363 OT CG       0.10E+00   10.6     0.00008489     -7364.8306561302 -4.77E-03
   364 OT LS       0.10E+00    5.0                    -7364.8353401230
   365 OT CG       0.10E+00   16.7     0.00008401     -7364.8353401462 -4.68E-03
   366 OT LS       0.10E+00    4.1                    -7364.8399465155
   367 OT CG       0.10E+00   10.6     0.00008343     -7364.8399465879 -4.61E-03
   368 OT LS       0.99E-01    4.1                    -7364.8444594318
   369 OT CG       0.99E-01   10.6     0.00008276     -7364.8444596216 -4.51E-03
   370 OT LS       0.99E-01    4.1                    -7364.8488967982
   371 OT CG       0.99E-01   10.6     0.00008211     -7364.8488968025 -4.44E-03
   372 OT LS       0.99E-01    4.1                    -7364.8532645340
   373 OT CG       0.99E-01   10.6     0.00008149     -7364.8532645340 -4.37E-03
   374 OT LS       0.99E-01    4.1                    -7364.8575562215
   375 OT CG       0.99E-01   10.6     0.00008079     -7364.8575562468 -4.29E-03
   376 OT LS       0.10E+00    4.1                    -7364.8617909320
   377 OT CG       0.10E+00   10.8     0.00008008     -7364.8617909898 -4.23E-03
   378 OT LS       0.99E-01    4.1                    -7364.8659491240
   379 OT CG       0.99E-01   10.6     0.00007952     -7364.8659491249 -4.16E-03
   380 OT LS       0.99E-01    4.1                    -7364.8700312764
   381 OT CG       0.99E-01   10.6     0.00007886     -7364.8700313566 -4.08E-03
   382 OT LS       0.99E-01    4.1                    -7364.8740339102
   383 OT CG       0.99E-01   10.6     0.00007821     -7364.8740339529 -4.00E-03
   384 OT LS       0.99E-01    4.1                    -7364.8779890828
   385 OT CG       0.99E-01   10.6     0.00007756     -7364.8779891672 -3.96E-03
   386 OT LS       0.99E-01    4.1                    -7364.8818763133
   387 OT CG       0.99E-01   10.6     0.00007688     -7364.8818763148 -3.89E-03
   388 OT LS       0.99E-01    4.1                    -7364.8857082171
   389 OT CG       0.99E-01   10.6     0.00007640     -7364.8857082589 -3.83E-03
   390 OT LS       0.99E-01    4.1                    -7364.8894817268
   391 OT CG       0.99E-01   10.6     0.00007581     -7364.8894817602 -3.77E-03
   392 OT LS       0.99E-01    4.1                    -7364.8932071735
   393 OT CG       0.99E-01   10.7     0.00007511     -7364.8932072042 -3.73E-03
   394 OT LS       0.10E+00    4.1                    -7364.8968832637
   395 OT CG       0.10E+00   10.6     0.00007445     -7364.8968833595 -3.68E-03
   396 OT LS       0.10E+00    4.1                    -7364.9004921806
   397 OT CG       0.10E+00   10.6     0.00007397     -7364.9004921835 -3.61E-03
   398 OT LS       0.10E+00    4.1                    -7364.9040419624
   399 OT CG       0.10E+00   10.6     0.00007336     -7364.9040420049 -3.55E-03
   400 OT LS       0.10E+00    4.1                    -7364.9075402868
   401 OT CG       0.10E+00   10.6     0.00007275     -7364.9075402966 -3.50E-03
   402 OT LS       0.10E+00    4.1                    -7364.9109926746
   403 OT CG       0.10E+00   10.6     0.00007224     -7364.9109927189 -3.45E-03
   404 OT LS       0.10E+00    4.1                    -7364.9143890145
   405 OT CG       0.10E+00   10.6     0.00007194     -7364.9143890333 -3.40E-03
   406 OT LS       0.99E-01    4.1                    -7364.9177404095
   407 OT CG       0.99E-01   10.6     0.00007148     -7364.9177404904 -3.35E-03
   408 OT LS       0.99E-01    4.1                    -7364.9210443026
   409 OT CG       0.99E-01   10.9     0.00007090     -7364.9210443122 -3.30E-03
   410 OT LS       0.10E+00    4.1                    -7364.9243071606
   411 OT CG       0.10E+00   10.6     0.00007051     -7364.9243072121 -3.26E-03
   412 OT LS       0.99E-01    4.1                    -7364.9275236317
   413 OT CG       0.99E-01   10.6     0.00006995     -7364.9275236704 -3.22E-03
   414 OT LS       0.99E-01    4.1                    -7364.9306974663
   415 OT CG       0.99E-01   10.6     0.00006948     -7364.9306974898 -3.17E-03
   416 OT LS       0.99E-01    4.1                    -7364.9338256529
   417 OT CG       0.99E-01   10.6     0.00006898     -7364.9338256572 -3.13E-03
   418 OT LS       0.10E+00    4.1                    -7364.9369230310
   419 OT CG       0.10E+00   10.6     0.00006852     -7364.9369230962 -3.10E-03
   420 OT LS       0.10E+00    4.1                    -7364.9399757708
   421 OT CG       0.10E+00   10.6     0.00006813     -7364.9399757755 -3.05E-03
   422 OT LS       0.99E-01    4.1                    -7364.9429808167
   423 OT CG       0.99E-01   10.6     0.00006770     -7364.9429808683 -3.01E-03
   424 OT LS       0.99E-01    4.1                    -7364.9459459329
   425 OT CG       0.99E-01   10.9     0.00006707     -7364.9459459351 -2.97E-03
   426 OT LS       0.10E+00    4.1                    -7364.9488808451
   427 OT CG       0.10E+00   10.6     0.00006653     -7364.9488810613 -2.94E-03
   428 OT LS       0.10E+00    4.1                    -7364.9517662679
   429 OT CG       0.10E+00   10.6     0.00006599     -7364.9517662713 -2.89E-03
   430 OT LS       0.10E+00    4.1                    -7364.9546003749
   431 OT CG       0.10E+00   12.1     0.00006559     -7364.9546003811 -2.83E-03
   432 OT LS       0.99E-01    4.1                    -7364.9573866621
   433 OT CG       0.99E-01   10.6     0.00006513     -7364.9573867364 -2.79E-03
   434 OT LS       0.99E-01    4.1                    -7364.9601378493
   435 OT CG       0.99E-01   10.6     0.00006459     -7364.9601378546 -2.75E-03
   436 OT LS       0.10E+00    4.1                    -7364.9628513502
   437 OT CG       0.10E+00   10.6     0.00006421     -7364.9628513730 -2.71E-03
   438 OT LS       0.99E-01    4.1                    -7364.9655227082
   439 OT CG       0.99E-01   10.6     0.00006372     -7364.9655227439 -2.67E-03
   440 OT LS       0.10E+00    4.1                    -7364.9681631219
   441 OT CG       0.10E+00   10.6     0.00006331     -7364.9681631506 -2.64E-03
   442 OT LS       0.10E+00    4.2                    -7364.9707637218
   443 OT CG       0.10E+00   10.7     0.00006286     -7364.9707637352 -2.60E-03
   444 OT LS       0.10E+00    4.8                    -7364.9733297996
   445 OT CG       0.10E+00   15.8     0.00006252     -7364.9733298030 -2.57E-03
   446 OT LS       0.99E-01    4.1                    -7364.9758533116
   447 OT CG       0.99E-01   10.6     0.00006219     -7364.9758533982 -2.52E-03
   448 OT LS       0.99E-01    4.1                    -7364.9783506823
   449 OT CG       0.99E-01   10.6     0.00006168     -7364.9783506824 -2.50E-03
   450 OT LS       0.10E+00    4.1                    -7364.9808254610
   451 OT CG       0.10E+00   10.6     0.00006132     -7364.9808255981 -2.47E-03
   452 OT LS       0.10E+00    4.1                    -7364.9832744603
   453 OT CG       0.10E+00   10.6     0.00006087     -7364.9832744648 -2.45E-03
   454 OT LS       0.10E+00    4.1                    -7364.9856986588
   455 OT CG       0.10E+00   10.6     0.00006058     -7364.9856987106 -2.42E-03
   456 OT LS       0.10E+00    4.1                    -7364.9880832775
   457 OT CG       0.10E+00   10.8     0.00006023     -7364.9880833979 -2.38E-03
   458 OT LS       0.10E+00    4.1                    -7364.9904396653
   459 OT CG       0.10E+00   10.6     0.00005991     -7364.9904396655 -2.36E-03
   460 OT LS       0.10E+00    4.1                    -7364.9927706647
   461 OT CG       0.10E+00   10.6     0.00005953     -7364.9927706649 -2.33E-03
   462 OT LS       0.10E+00    4.1                    -7364.9950783821
   463 OT CG       0.10E+00   10.6     0.00005921     -7364.9950784000 -2.31E-03
   464 OT LS       0.10E+00    4.1                    -7364.9973606990
   465 OT CG       0.10E+00   10.6     0.00005880     -7364.9973606992 -2.28E-03
   466 OT LS       0.10E+00    4.1                    -7364.9996248468
   467 OT CG       0.10E+00   10.6     0.00005856     -7364.9996249212 -2.26E-03
   468 OT LS       0.10E+00    4.1                    -7365.0018574126
   469 OT CG       0.10E+00   10.6     0.00005822     -7365.0018574936 -2.23E-03
   470 OT LS       0.10E+00    4.1                    -7365.0040603823
   471 OT CG       0.10E+00   10.6     0.00005796     -7365.0040603872 -2.20E-03
   472 OT LS       0.99E-01    4.1                    -7365.0062361282
   473 OT CG       0.99E-01   10.6     0.00005755     -7365.0062361540 -2.18E-03
   474 OT LS       0.99E-01    4.3                    -7365.0083848354
   475 OT CG       0.99E-01   10.6     0.00005718     -7365.0083848393 -2.15E-03
   476 OT LS       0.99E-01    4.1                    -7365.0105045188
   477 OT CG       0.99E-01   10.6     0.00005685     -7365.0105045198 -2.12E-03
   478 OT LS       0.99E-01    4.1                    -7365.0125895898
   479 OT CG       0.99E-01   10.6     0.00005651     -7365.0125896394 -2.09E-03
   480 OT LS       0.99E-01    4.1                    -7365.0146563342
   481 OT CG       0.99E-01   10.6     0.00005611     -7365.0146563569 -2.07E-03
   482 OT LS       0.10E+00    4.1                    -7365.0166990707
   483 OT CG       0.10E+00   10.6     0.00005568     -7365.0166990836 -2.04E-03
   484 OT LS       0.10E+00    4.1                    -7365.0187177270
   485 OT CG       0.10E+00   10.6     0.00005539     -7365.0187177493 -2.02E-03
   486 OT LS       0.99E-01    4.1                    -7365.0207073400
   487 OT CG       0.99E-01   10.6     0.00005498     -7365.0207073734 -1.99E-03
   488 OT LS       0.10E+00    4.1                    -7365.0226802726
   489 OT CG       0.10E+00   10.6     0.00005459     -7365.0226803614 -1.97E-03
   490 OT LS       0.10E+00    4.4                    -7365.0246237221
   491 OT CG       0.10E+00   10.6     0.00005420     -7365.0246237248 -1.94E-03
   492 OT LS       0.10E+00    4.1                    -7365.0265466171
   493 OT CG       0.10E+00   10.6     0.00005388     -7365.0265466485 -1.92E-03
   494 OT LS       0.10E+00    4.1                    -7365.0284418160
   495 OT CG       0.10E+00   10.6     0.00005356     -7365.0284418306 -1.90E-03
   496 OT LS       0.10E+00    4.1                    -7365.0303142998
   497 OT CG       0.10E+00   10.6     0.00005323     -7365.0303142998 -1.87E-03
   498 OT LS       0.10E+00    4.1                    -7365.0321646818
   499 OT CG       0.10E+00   10.6     0.00005292     -7365.0321646824 -1.85E-03
   500 OT LS       0.10E+00    4.1                    -7365.0339923102

  Leaving inner SCF loop after reaching   500 steps.


  Electronic density on regular grids:      -3253.9999971322        0.0000028678
  Core density on regular grids:             3253.9999998100       -0.0000001900
  Total charge density on r-space grids:        0.0000026778
  Total charge density g-space grids:           0.0000026778

  Overlap energy of the core charge distribution:               0.00000802992161
  Self energy of the core charge distribution:             -18955.06926528182885
  Core Hamiltonian energy:                                   5376.09434748070271
  Hartree energy:                                            7930.77550248721855
  Exchange-correlation energy:                              -1714.73140514977217
  Dispersion energy:                                           -2.10317987646553

  Total energy:                                             -7365.03399231022377

  outer SCF iter =    1 RMS gradient =   0.53E-04 energy =      -7365.0339923102

  ----------------------------------- OT ---------------------------------------
  Minimizer      : CG                  : conjugate gradient
  Preconditioner : FULL_ALL            : diagonalization, state selective
  Precond_solver : DEFAULT
  Line search    : 2PNT                : 2 energies, one gradient
  stepsize       :    0.15000000                  energy_gap     :    0.00100000
  eps_taylor     :   0.10000E-15                  max_taylor     :             4
  ----------------------------------- OT ---------------------------------------

  Step     Update method      Time    Convergence         Total energy    Change
  ------------------------------------------------------------------------------
     1 OT CG       0.15E+00   44.2     0.00036008     -7365.0339923115 -1.83E-03
     2 OT LS       0.25E+00    3.9                    -7365.2111733195
     3 OT CG       0.25E+00   10.6     0.00002183     -7365.2442526847 -2.10E-01
     4 OT LS       0.58E-01    3.9                    -7365.2424804675
     5 OT CG       0.58E-01   10.5     0.00000668     -7365.2444342547 -1.82E-04
     6 OT LS       0.78E-01    3.9                    -7365.2444555867
     7 OT CG       0.78E-01   11.9     0.00000216     -7365.2444570601 -2.28E-05
     8 OT LS       0.13E+00    3.9                    -7365.2444603488
     9 OT CG       0.13E+00   10.5     0.00000089     -7365.2444609611 -3.90E-06

  *** SCF run converged in     9 steps ***


  Electronic density on regular grids:      -3253.9999971323        0.0000028677
  Core density on regular grids:             3253.9999998100       -0.0000001900
  Total charge density on r-space grids:        0.0000026778
  Total charge density g-space grids:           0.0000026778

  Overlap energy of the core charge distribution:               0.00000802992161
  Self energy of the core charge distribution:             -18955.06926528182885
  Core Hamiltonian energy:                                   5375.84280377235609
  Hartree energy:                                            7930.84431367660727
  Exchange-correlation energy:                              -1714.75914128173986
  Dispersion energy:                                           -2.10317987646553

  Total energy:                                             -7365.24446096114843

  outer SCF iter =    2 RMS gradient =   0.89E-06 energy =      -7365.2444609611
  outer SCF loop converged in   2 iterations or  509 steps


 ENERGY| Total FORCE_EVAL ( QS ) energy (a.u.):            -7365.244461310523548


 ATOMIC FORCES in [a.u.]

 # Atom   Kind   Element          X              Y              Z
      1      1      Ti          0.00000000     0.00000000     0.00000000
      2      2      Si          0.00000000     0.00000000     0.00000000
      3      2      Si          0.00000000     0.00000000     0.00000000
      4      2      Si          0.00000000     0.00000000     0.00000000
      5      2      Si          0.00000000     0.00000000     0.00000000
      6      2      Si          0.00000000     0.00000000     0.00000000
      7      2      Si          0.00000000     0.00000000     0.00000000
      8      2      Si          0.00000000     0.00000000     0.00000000
      9      2      Si          0.00000000     0.00000000     0.00000000
     10      2      Si          0.00000000     0.00000000     0.00000000
     11      2      Si          0.00000000     0.00000000     0.00000000
     12      2      Si          0.00000000     0.00000000     0.00000000
     13      2      Si          0.00000000     0.00000000     0.00000000
     14      2      Si          0.00000000     0.00000000     0.00000000
     15      2      Si          0.00000000     0.00000000     0.00000000
     16      2      Si          0.00000000     0.00000000     0.00000000
     17      2      Si          0.00000000     0.00000000     0.00000000
     18      2      Si          0.00000000     0.00000000     0.00000000
     19      2      Si          0.00000000     0.00000000     0.00000000
     20      2      Si          0.00000000     0.00000000     0.00000000
     21      2      Si          0.00000000     0.00000000     0.00000000
     22      2      Si          0.00000000     0.00000000     0.00000000
     23      2      Si          0.00000000     0.00000000     0.00000000
     24      2      Si          0.00000000     0.00000000     0.00000000
     25      2      Si          0.00000000     0.00000000     0.00000000
     26      2      Si          0.00000000     0.00000000     0.00000000
     27      2      Si          0.00000000     0.00000000     0.00000000
     28      2      Si          0.00000000     0.00000000     0.00000000
     29      2      Si          0.00000000     0.00000000     0.00000000
     30      2      Si          0.00000000     0.00000000     0.00000000
     31      2      Si          0.00000000     0.00000000     0.00000000
     32      2      Si          0.00000000     0.00000000     0.00000000
     33      2      Si          0.00000000     0.00000000     0.00000000
     34      2      Si          0.00000000     0.00000000     0.00000000
     35      2      Si          0.00000000     0.00000000     0.00000000
     36      2      Si          0.00000000     0.00000000     0.00000000
     37      2      Si          0.00000000     0.00000000     0.00000000
     38      2      Si          0.00000000     0.00000000     0.00000000
     39      2      Si          0.00000000     0.00000000     0.00000000
     40      2      Si          0.00000000     0.00000000     0.00000000
     41      2      Si          0.00000000     0.00000000     0.00000000
     42      2      Si          0.00000000     0.00000000     0.00000000
     43      2      Si          0.00000000     0.00000000     0.00000000
     44      2      Si          0.00000000     0.00000000     0.00000000
     45      2      Si          0.00000000     0.00000000     0.00000000
     46      2      Si          0.00000000     0.00000000     0.00000000
     47      2      Si          0.00000000     0.00000000     0.00000000
     48      2      Si          0.00000000     0.00000000     0.00000000
     49      2      Si          0.00000000     0.00000000     0.00000000
     50      2      Si          0.00000000     0.00000000     0.00000000
     51      2      Si          0.00000000     0.00000000     0.00000000
     52      2      Si          0.00000000     0.00000000     0.00000000
     53      2      Si          0.00000000     0.00000000     0.00000000
     54      2      Si          0.00000000     0.00000000     0.00000000
     55      2      Si          0.00000000     0.00000000     0.00000000
     56      2      Si          0.00000000     0.00000000     0.00000000
     57      2      Si          0.00000000     0.00000000     0.00000000
     58      2      Si          0.00000000     0.00000000     0.00000000
     59      2      Si          0.00000000     0.00000000     0.00000000
     60      2      Si          0.00000000     0.00000000     0.00000000
     61      2      Si          0.00000000     0.00000000     0.00000000
     62      2      Si          0.00000000     0.00000000     0.00000000
     63      2      Si          0.00000000     0.00000000     0.00000000
     64      2      Si          0.00000000     0.00000000     0.00000000
     65      2      Si          0.00000000     0.00000000     0.00000000
     66      2      Si          0.00000000     0.00000000     0.00000000
     67      2      Si          0.00000000     0.00000000     0.00000000
     68      2      Si          0.00000000     0.00000000     0.00000000
     69      2      Si          0.00000000     0.00000000     0.00000000
     70      2      Si          0.00000000     0.00000000     0.00000000
     71      2      Si          0.00000000     0.00000000     0.00000000
     72      2      Si          0.00000000     0.00000000     0.00000000
     73      2      Si          0.00000000     0.00000000     0.00000000
     74      2      Si          0.00000000     0.00000000     0.00000000
     75      2      Si          0.00000000     0.00000000     0.00000000
     76      2      Si          0.00000000     0.00000000     0.00000000
     77      2      Si          0.00000000     0.00000000     0.00000000
     78      2      Si          0.00000000     0.00000000     0.00000000
     79      2      Si          0.00000000     0.00000000     0.00000000
     80      2      Si          0.00000000     0.00000000     0.00000000
     81      2      Si          0.00000000     0.00000000     0.00000000
     82      2      Si          0.00000000     0.00000000     0.00000000
     83      2      Si          0.00000000     0.00000000     0.00000000
     84      2      Si          0.00000000     0.00000000     0.00000000
     85      2      Si          0.00000000     0.00000000     0.00000000
     86      2      Si          0.00000000     0.00000000     0.00000000
     87      2      Si          0.00000000     0.00000000     0.00000000
     88      2      Si          0.00000000     0.00000000     0.00000000
     89      2      Si          0.00000000     0.00000000     0.00000000
     90      2      Si          0.00000000     0.00000000     0.00000000
     91      2      Si          0.00000000     0.00000000     0.00000000
     92      2      Si          0.00000000     0.00000000     0.00000000
     93      2      Si          0.00000000     0.00000000     0.00000000
     94      2      Si          0.00000000     0.00000000     0.00000000
     95      2      Si          0.00000000     0.00000000     0.00000000
     96      2      Si          0.00000000     0.00000000     0.00000000
     97      2      Si          0.00000000     0.00000000     0.00000000
     98      2      Si          0.00000000     0.00000000     0.00000000
     99      2      Si          0.00000000     0.00000000     0.00000000
    100      2      Si          0.00000000     0.00000000     0.00000000
    101      2      Si          0.00000000     0.00000000     0.00000000
    102      2      Si          0.00000000     0.00000000     0.00000000
    103      2      Si          0.00000000     0.00000000     0.00000000
    104      2      Si          0.00000000     0.00000000     0.00000000
    105      2      Si          0.00000000     0.00000000     0.00000000
    106      2      Si          0.00000000     0.00000000     0.00000000
    107      2      Si          0.00000000     0.00000000     0.00000000
    108      2      Si          0.00000000     0.00000000     0.00000000
    109      2      Si          0.00000000     0.00000000     0.00000000
    110      2      Si          0.00000000     0.00000000     0.00000000
    111      2      Si          0.00000000     0.00000000     0.00000000
    112      2      Si          0.00000000     0.00000000     0.00000000
    113      2      Si          0.00000000     0.00000000     0.00000000
    114      2      Si          0.00000000     0.00000000     0.00000000
    115      2      Si          0.00000000     0.00000000     0.00000000
    116      2      Si          0.00000000     0.00000000     0.00000000
    117      2      Si          0.00000000     0.00000000     0.00000000
    118      2      Si          0.00000000     0.00000000     0.00000000
    119      2      Si          0.00000000     0.00000000     0.00000000
    120      2      Si          0.00000000     0.00000000     0.00000000
    121      2      Si          0.00000000     0.00000000     0.00000000
    122      2      Si          0.00000000     0.00000000     0.00000000
    123      2      Si          0.00000000     0.00000000     0.00000000
    124      2      Si          0.00000000     0.00000000     0.00000000
    125      2      Si          0.00000000     0.00000000     0.00000000
    126      2      Si          0.00000000     0.00000000     0.00000000
    127      2      Si          0.00000000     0.00000000     0.00000000
    128      2      Si          0.00000000     0.00000000     0.00000000
    129      2      Si          0.00000000     0.00000000     0.00000000
    130      2      Si          0.00000000     0.00000000     0.00000000
    131      2      Si          0.00000000     0.00000000     0.00000000
    132      2      Si          0.00000000     0.00000000     0.00000000
    133      2      Si          0.00000000     0.00000000     0.00000000
    134      2      Si          0.00000000     0.00000000     0.00000000
    135      2      Si          0.00000000     0.00000000     0.00000000
    136      2      Si          0.00000000     0.00000000     0.00000000
    137      2      Si          0.00000000     0.00000000     0.00000000
    138      2      Si          0.00000000     0.00000000     0.00000000
    139      2      Si          0.00000000     0.00000000     0.00000000
    140      2      Si          0.00000000     0.00000000     0.00000000
    141      2      Si          0.00000000     0.00000000     0.00000000
    142      2      Si          0.00000000     0.00000000     0.00000000
    143      2      Si          0.00000000     0.00000000     0.00000000
    144      2      Si          0.00000000     0.00000000     0.00000000
    145      2      Si          0.00000000     0.00000000     0.00000000
    146      2      Si          0.00000000     0.00000000     0.00000000
    147      2      Si          0.00000000     0.00000000     0.00000000
    148      2      Si          0.00000000     0.00000000     0.00000000
    149      2      Si          0.00000000     0.00000000     0.00000000
    150      2      Si          0.00000000     0.00000000     0.00000000
    151      2      Si          0.00000000     0.00000000     0.00000000
    152      2      Si          0.00000000     0.00000000     0.00000000
    153      2      Si          0.00000000     0.00000000     0.00000000
    154      2      Si          0.00000000     0.00000000     0.00000000
    155      2      Si          0.00000000     0.00000000     0.00000000
    156      2      Si          0.00000000     0.00000000     0.00000000
    157      2      Si          0.00000000     0.00000000     0.00000000
    158      2      Si          0.00000000     0.00000000     0.00000000
    159      2      Si          0.00000000     0.00000000     0.00000000
    160      2      Si          0.00000000     0.00000000     0.00000000
    161      2      Si          0.00000000     0.00000000     0.00000000
    162      2      Si          0.00000000     0.00000000     0.00000000
    163      2      Si          0.00000000     0.00000000     0.00000000
    164      2      Si          0.00000000     0.00000000     0.00000000
    165      2      Si          0.00000000     0.00000000     0.00000000
    166      2      Si          0.00000000     0.00000000     0.00000000
    167      2      Si          0.00000000     0.00000000     0.00000000
    168      2      Si          0.00000000     0.00000000     0.00000000
    169      2      Si          0.00000000     0.00000000     0.00000000
    170      2      Si          0.00000000     0.00000000     0.00000000
    171      2      Si          0.00000000     0.00000000     0.00000000
    172      2      Si          0.00000000     0.00000000     0.00000000
    173      2      Si          0.00000000     0.00000000     0.00000000
    174      2      Si          0.00000000     0.00000000     0.00000000
    175      2      Si          0.00000000     0.00000000     0.00000000
    176      2      Si          0.00000000     0.00000000     0.00000000
    177      2      Si          0.00000000     0.00000000     0.00000000
    178      2      Si          0.00000000     0.00000000     0.00000000
    179      2      Si          0.00000000     0.00000000     0.00000000
    180      2      Si          0.00000000     0.00000000     0.00000000
    181      2      Si          0.00000000     0.00000000     0.00000000
    182      2      Si          0.00000000     0.00000000     0.00000000
    183      2      Si          0.00000000     0.00000000     0.00000000
    184      2      Si          0.00000000     0.00000000     0.00000000
    185      2      Si          0.00000000     0.00000000     0.00000000
    186      2      Si          0.00000000     0.00000000     0.00000000
    187      2      Si          0.00000000     0.00000000     0.00000000
    188      2      Si          0.00000000     0.00000000     0.00000000
    189      2      Si          0.00000000     0.00000000     0.00000000
    190      2      Si          0.00000000     0.00000000     0.00000000
    191      2      Si          0.00000000     0.00000000     0.00000000
    192      3      O           0.00000000     0.00000000     0.00000000
    193      3      O           0.00000000     0.00000000     0.00000000
    194      3      O           0.00000000     0.00000000     0.00000000
    195      3      O           0.00000000     0.00000000     0.00000000
    196      3      O           0.00000000     0.00000000     0.00000000
    197      3      O           0.00000000     0.00000000     0.00000000
    198      3      O           0.00000000     0.00000000     0.00000000
    199      3      O           0.00000000     0.00000000     0.00000000
    200      3      O           0.00000000     0.00000000     0.00000000
    201      3      O           0.00000000     0.00000000     0.00000000
    202      3      O           0.00000000     0.00000000     0.00000000
    203      3      O           0.00000000     0.00000000     0.00000000
    204      3      O           0.00000000     0.00000000     0.00000000
    205      3      O           0.00000000     0.00000000     0.00000000
    206      3      O           0.00000000     0.00000000     0.00000000
    207      3      O           0.00000000     0.00000000     0.00000000
    208      3      O           0.00000000     0.00000000     0.00000000
    209      3      O           0.00000000     0.00000000     0.00000000
    210      3      O           0.00000000     0.00000000     0.00000000
    211      3      O           0.00000000     0.00000000     0.00000000
    212      3      O           0.00000000     0.00000000     0.00000000
    213      3      O           0.00000000     0.00000000     0.00000000
    214      3      O           0.00000000     0.00000000     0.00000000
    215      3      O           0.00000000     0.00000000     0.00000000
    216      3      O           0.00000000     0.00000000     0.00000000
    217      3      O           0.00000000     0.00000000     0.00000000
    218      3      O           0.00000000     0.00000000     0.00000000
    219      3      O           0.00000000     0.00000000     0.00000000
    220      3      O           0.00000000     0.00000000     0.00000000
    221      3      O           0.00000000     0.00000000     0.00000000
    222      3      O           0.00000000     0.00000000     0.00000000
    223      3      O           0.00000000     0.00000000     0.00000000
    224      3      O           0.00000000     0.00000000     0.00000000
    225      3      O           0.00000000     0.00000000     0.00000000
    226      3      O           0.00000000     0.00000000     0.00000000
    227      3      O           0.00000000     0.00000000     0.00000000
    228      3      O           0.00000000     0.00000000     0.00000000
    229      3      O           0.00000000     0.00000000     0.00000000
    230      3      O           0.00000000     0.00000000     0.00000000
    231      3      O           0.00000000     0.00000000     0.00000000
    232      3      O           0.00000000     0.00000000     0.00000000
    233      3      O           0.00000000     0.00000000     0.00000000
    234      3      O           0.00000000     0.00000000     0.00000000
    235      3      O           0.00000000     0.00000000     0.00000000
    236      3      O           0.00000000     0.00000000     0.00000000
    237      3      O           0.00000000     0.00000000     0.00000000
    238      3      O           0.00000000     0.00000000     0.00000000
    239      3      O           0.00000000     0.00000000     0.00000000
    240      3      O           0.00000000     0.00000000     0.00000000
    241      3      O           0.00000000     0.00000000     0.00000000
    242      3      O           0.00000000     0.00000000     0.00000000
    243      3      O           0.00000000     0.00000000     0.00000000
    244      3      O           0.00000000     0.00000000     0.00000000
    245      3      O           0.00000000     0.00000000     0.00000000
    246      3      O           0.00000000     0.00000000     0.00000000
    247      3      O           0.00000000     0.00000000     0.00000000
    248      3      O           0.00000000     0.00000000     0.00000000
    249      3      O           0.00000000     0.00000000     0.00000000
    250      3      O           0.00000000     0.00000000     0.00000000
    251      3      O           0.00000000     0.00000000     0.00000000
    252      3      O           0.00000000     0.00000000     0.00000000
    253      3      O           0.00000000     0.00000000     0.00000000
    254      3      O           0.00000000     0.00000000     0.00000000
    255      3      O           0.00000000     0.00000000     0.00000000
    256      3      O           0.00000000     0.00000000     0.00000000
    257      3      O           0.00000000     0.00000000     0.00000000
    258      3      O           0.00000000     0.00000000     0.00000000
    259      3      O           0.00000000     0.00000000     0.00000000
    260      3      O           0.00000000     0.00000000     0.00000000
    261      3      O           0.00000000     0.00000000     0.00000000
    262      3      O           0.00000000     0.00000000     0.00000000
    263      3      O           0.00000000     0.00000000     0.00000000
    264      3      O           0.00000000     0.00000000     0.00000000
    265      3      O           0.00000000     0.00000000     0.00000000
    266      3      O           0.00000000     0.00000000     0.00000000
    267      3      O           0.00000000     0.00000000     0.00000000
    268      3      O           0.00000000     0.00000000     0.00000000
    269      3      O           0.00000000     0.00000000     0.00000000
    270      3      O           0.00000000     0.00000000     0.00000000
    271      3      O           0.00000000     0.00000000     0.00000000
    272      3      O           0.00000000     0.00000000     0.00000000
    273      3      O           0.00000000     0.00000000     0.00000000
    274      3      O           0.00000000     0.00000000     0.00000000
    275      3      O           0.00000000     0.00000000     0.00000000
    276      3      O           0.00000000     0.00000000     0.00000000
    277      3      O           0.00000000     0.00000000     0.00000000
    278      3      O           0.00000000     0.00000000     0.00000000
    279      3      O           0.00000000     0.00000000     0.00000000
    280      3      O           0.00000000     0.00000000     0.00000000
    281      3      O           0.00000000     0.00000000     0.00000000
    282      3      O           0.00000000     0.00000000     0.00000000
    283      3      O           0.00000000     0.00000000     0.00000000
    284      3      O           0.00000000     0.00000000     0.00000000
    285      3      O           0.00000000     0.00000000     0.00000000
    286      3      O           0.00000000     0.00000000     0.00000000
    287      3      O           0.00000000     0.00000000     0.00000000
    288      3      O           0.00000000     0.00000000     0.00000000
    289      3      O           0.00000000     0.00000000     0.00000000
    290      3      O           0.00000000     0.00000000     0.00000000
    291      3      O           0.00000000     0.00000000     0.00000000
    292      3      O           0.00000000     0.00000000     0.00000000
    293      3      O           0.00000000     0.00000000     0.00000000
    294      3      O           0.00000000     0.00000000     0.00000000
    295      3      O           0.00000000     0.00000000     0.00000000
    296      3      O           0.00000000     0.00000000     0.00000000
    297      3      O           0.00000000     0.00000000     0.00000000
    298      3      O           0.00000000     0.00000000     0.00000000
    299      3      O           0.00000000     0.00000000     0.00000000
    300      3      O           0.00000000     0.00000000     0.00000000
    301      3      O           0.00000000     0.00000000     0.00000000
    302      3      O           0.00000000     0.00000000     0.00000000
    303      3      O           0.00000000     0.00000000     0.00000000
    304      3      O           0.00000000     0.00000000     0.00000000
    305      3      O           0.00000000     0.00000000     0.00000000
    306      3      O           0.00000000     0.00000000     0.00000000
    307      3      O           0.00000000     0.00000000     0.00000000
    308      3      O           0.00000000     0.00000000     0.00000000
    309      3      O           0.00000000     0.00000000     0.00000000
    310      3      O           0.00000000     0.00000000     0.00000000
    311      3      O           0.00000000     0.00000000     0.00000000
    312      3      O           0.00000000     0.00000000     0.00000000
    313      3      O           0.00000000     0.00000000     0.00000000
    314      3      O           0.00000000     0.00000000     0.00000000
    315      3      O           0.00000000     0.00000000     0.00000000
    316      3      O           0.00000000     0.00000000     0.00000000
    317      3      O           0.00000000     0.00000000     0.00000000
    318      3      O           0.00000000     0.00000000     0.00000000
    319      3      O           0.00000000     0.00000000     0.00000000
    320      3      O           0.00000000     0.00000000     0.00000000
    321      3      O           0.00000000     0.00000000     0.00000000
    322      3      O           0.00000000     0.00000000     0.00000000
    323      3      O           0.00000000     0.00000000     0.00000000
    324      3      O           0.00000000     0.00000000     0.00000000
    325      3      O           0.00000000     0.00000000     0.00000000
    326      3      O           0.00000000     0.00000000     0.00000000
    327      3      O           0.00000000     0.00000000     0.00000000
    328      3      O           0.00000000     0.00000000     0.00000000
    329      3      O           0.00000000     0.00000000     0.00000000
    330      3      O           0.00000000     0.00000000     0.00000000
    331      3      O           0.00000000     0.00000000     0.00000000
    332      3      O           0.00000000     0.00000000     0.00000000
    333      3      O           0.00000000     0.00000000     0.00000000
    334      3      O           0.00000000     0.00000000     0.00000000
    335      3      O           0.00000000     0.00000000     0.00000000
    336      3      O           0.00000000     0.00000000     0.00000000
    337      3      O           0.00000000     0.00000000     0.00000000
    338      3      O           0.00000000     0.00000000     0.00000000
    339      3      O           0.00000000     0.00000000     0.00000000
    340      3      O           0.00000000     0.00000000     0.00000000
    341      3      O           0.00000000     0.00000000     0.00000000
    342      3      O           0.00000000     0.00000000     0.00000000
    343      3      O           0.00000000     0.00000000     0.00000000
    344      3      O           0.00000000     0.00000000     0.00000000
    345      3      O           0.00000000     0.00000000     0.00000000
    346      3      O           0.00000000     0.00000000     0.00000000
    347      3      O           0.00000000     0.00000000     0.00000000
    348      3      O           0.00000000     0.00000000     0.00000000
    349      3      O           0.00000000     0.00000000     0.00000000
    350      3      O           0.00000000     0.00000000     0.00000000
    351      3      O           0.00000000     0.00000000     0.00000000
    352      3      O           0.00000000     0.00000000     0.00000000
    353      3      O           0.00000000     0.00000000     0.00000000
    354      3      O           0.00000000     0.00000000     0.00000000
    355      3      O           0.00000000     0.00000000     0.00000000
    356      3      O           0.00000000     0.00000000     0.00000000
    357      3      O           0.00000000     0.00000000     0.00000000
    358      3      O           0.00000000     0.00000000     0.00000000
    359      3      O           0.00000000     0.00000000     0.00000000
    360      3      O           0.00000000     0.00000000     0.00000000
    361      3      O           0.00000000     0.00000000     0.00000000
    362      3      O           0.00000000     0.00000000     0.00000000
    363      3      O           0.00000000     0.00000000     0.00000000
    364      3      O           0.00000000     0.00000000     0.00000000
    365      3      O           0.00000000     0.00000000     0.00000000
    366      3      O           0.00000000     0.00000000     0.00000000
    367      3      O           0.00000000     0.00000000     0.00000000
    368      3      O           0.00000000     0.00000000     0.00000000
    369      3      O           0.00000000     0.00000000     0.00000000
    370      3      O           0.00000000     0.00000000     0.00000000
    371      3      O           0.00000000     0.00000000     0.00000000
    372      3      O           0.00000000     0.00000000     0.00000000
    373      3      O           0.00000000     0.00000000     0.00000000
    374      3      O           0.00000000     0.00000000     0.00000000
    375      3      O           0.00000000     0.00000000     0.00000000
    376      3      O           0.00000000     0.00000000     0.00000000
    377      3      O           0.00000000     0.00000000     0.00000000
    378      3      O           0.00000000     0.00000000     0.00000000
    379      3      O           0.00000000     0.00000000     0.00000000
    380      3      O           0.00000000     0.00000000     0.00000000
    381      3      O           0.00000000     0.00000000     0.00000000
    382      3      O           0.00000000     0.00000000     0.00000000
    383      3      O           0.00000000     0.00000000     0.00000000
[...]
 flops    13 x    27 x    13        1528500361284       0.0%    100.0%      0.0%
 flops   411 x   256 x   675        1603081497600       0.0%    100.0%      0.0%
 flops   384 x   288 x   128        1606284214272       0.0%    100.0%      0.0%
 flops   384 x   288 x   665        1660027944960       0.0%    100.0%      0.0%
 flops   416 x   283 x   128        1709930446848       0.0%    100.0%      0.0%
 flops   411 x   288 x   128        1719226073088       0.0%    100.0%      0.0%
 flops   416 x   283 x   665        1767142016640       0.0%    100.0%      0.0%
 flops   411 x   288 x   665        1776748659840       0.0%    100.0%      0.0%
 flops  2005 x   288 x   155        1831593484800       0.0%    100.0%      0.0%
 flops  2005 x   283 x   160        1857852889600       0.0%    100.0%      0.0%
 flops  1997 x   283 x   665        1867100661720       0.0%    100.0%      0.0%
 flops  2007 x   283 x   665        1876450189320       0.0%    100.0%      0.0%
 flops  1997 x   288 x   160        1883133296640       0.0%    100.0%      0.0%
 flops  2007 x   288 x   160        1892563107840       0.0%    100.0%      0.0%
 flops   384 x   256 x   128        2141712285696       0.0%    100.0%      0.0%
 flops   384 x   256 x   665        2213370593280       0.0%    100.0%      0.0%
 flops   384 x   288 x   670        2230012477440       0.0%    100.0%      0.0%
 flops   411 x   256 x   128        2292301430784       0.0%    100.0%      0.0%
 flops    13 x    13 x   155        2331047680260       0.0%    100.0%      0.0%
 flops   411 x   256 x   665        2368998213120       0.0%    100.0%      0.0%
 flops   416 x   283 x   670        2373905064960       0.0%    100.0%      0.0%
 flops   411 x   288 x   670        2386810229760       0.0%    100.0%      0.0%
 flops   416 x   288 x   675        2433875558400       0.0%    100.0%      0.0%
 flops  2005 x   256 x   155        2442124646400       0.0%    100.0%      0.0%
 flops  1997 x   283 x   670        2508185350080       0.0%    100.0%      0.0%
 flops  1997 x   256 x   160        2510844395520       0.0%    100.0%      0.0%
 flops  2007 x   283 x   670        2520745116480       0.0%    100.0%      0.0%
 flops  2007 x   256 x   160        2523417477120       0.0%    100.0%      0.0%
 flops  2005 x   283 x   675        2537025948000       0.0%    100.0%      0.0%
 flops  1997 x   288 x   675        2571548083200       0.0%    100.0%      0.0%
 flops  2007 x   288 x   675        2584425139200       0.0%    100.0%      0.0%
 flops   384 x   256 x   670        2973349969920       0.0%    100.0%      0.0%
 flops   411 x   256 x   670        3182413639680       0.0%    100.0%      0.0%
 flops   416 x   256 x   675        3245167411200       0.0%    100.0%      0.0%
 flops  1997 x   283 x   128        3330792018432       0.0%    100.0%      0.0%
 flops  2007 x   283 x   128        3347470996992       0.0%    100.0%      0.0%
 flops  1997 x   256 x   675        3428730777600       0.0%    100.0%      0.0%
 flops  2007 x   256 x   675        3445900185600       0.0%    100.0%      0.0%
 flops   416 x   288 x   128        3480282464256       0.0%    100.0%      0.0%
 flops   416 x   288 x   665        3596727214080       0.0%    100.0%      0.0%
 flops  2005 x   283 x   665        3749160567600       0.0%    100.0%      0.0%
 flops  2005 x   288 x   160        3781354291200       0.0%    100.0%      0.0%
 flops  1997 x   288 x   665        3800176611840       0.0%    100.0%      0.0%
 flops  2007 x   288 x   665        3819206039040       0.0%    100.0%      0.0%
 flops    13 x    32 x     5        3979888640000       0.0%    100.0%      0.0%
 flops     5 x    32 x    13        3979888640000       0.0%    100.0%      0.0%
 flops   416 x   256 x   128        4640376619008       0.0%    100.0%      0.0%
 flops   416 x   256 x   665        4795636285440       0.0%    100.0%      0.0%
 flops    13 x    13 x   160        4812485533440       0.0%    100.0%      0.0%
 flops   416 x   288 x   670        4831693701120       0.0%    100.0%      0.0%
 flops  2005 x   283 x   670        5036466326400       0.0%    100.0%      0.0%
 flops  2005 x   256 x   160        5041805721600       0.0%    100.0%      0.0%
 flops  1997 x   256 x   665        5066902149120       0.0%    100.0%      0.0%
 flops  2007 x   256 x   665        5092274718720       0.0%    100.0%      0.0%
 flops  1997 x   288 x   670        5104999157760       0.0%    100.0%      0.0%
 flops  2007 x   288 x   670        5130562498560       0.0%    100.0%      0.0%
 flops  2005 x   288 x   675        5163699456000       0.0%    100.0%      0.0%
 flops   416 x   256 x   670        6442258268160       0.0%    100.0%      0.0%
 flops  2005 x   283 x   128        6688270402560       0.0%    100.0%      0.0%
 flops  1997 x   288 x   128        6779279867904       0.0%    100.0%      0.0%
 flops  1997 x   256 x   670        6806665543680       0.0%    100.0%      0.0%
 flops  2007 x   288 x   128        6813227188224       0.0%    100.0%      0.0%
 flops  2007 x   256 x   670        6840749998080       0.0%    100.0%      0.0%
 flops  2005 x   256 x   675        6884932608000       0.0%    100.0%      0.0%
 flops  2005 x   288 x   665        7630800307200       0.0%    100.0%      0.0%
 flops  1997 x   256 x   128        9039039823872       0.0%    100.0%      0.0%
 flops  2007 x   256 x   128        9084302917632       0.0%    100.0%      0.0%
 flops  2005 x   256 x   665       10174400409600       0.0%    100.0%      0.0%
 flops  2005 x   288 x   670       10250899660800       0.0%    100.0%      0.0%
 flops  2005 x   288 x   128       13612875448320       0.0%    100.0%      0.0%
 flops  2005 x   256 x   670       13667866214400       0.0%    100.0%      0.0%
 flops    13 x    13 x   128       17324947920384       0.0%    100.0%      0.0%
 flops  2005 x   256 x   128       18150500597760       0.0%    100.0%      0.0%
 flops    13 x    32 x    13       90577799187200       0.0%    100.0%      0.0%
 flops inhomo. stacks              64174155664644     100.0%      0.0%      0.0%
 flops total                       518.632632E+12      12.4%     87.6%      0.0%
 flops max/rank                     23.026180E+12      12.4%     87.6%      0.0%
 matmuls inhomo. stacks                    195048     100.0%      0.0%      0.0%
 matmuls total                        11398554243       0.0%    100.0%      0.0%
 number of processed stacks              16226607       1.2%     98.8%      0.0%
 average stack size                                     1.0     711.0       0.0
 marketing flops                   868.002690E+12
 -------------------------------------------------------------------------------
 # multiplications                          10774
 max memory usage/rank             899.600384E+06
 # max total images/rank                        3
 # max 3D layers                                1
 # MPI messages exchanged                 4912944
 MPI messages size (bytes):
  total size                         8.379631E+12
  min size                           0.000000E+00
  max size                          10.885968E+06
  average size                       1.705623E+06
 MPI breakdown and total messages size (bytes):
             size <=      128               24168                        0
       128 < size <=     8192                   0                        0
      8192 < size <=    32768                1026                 33619968
     32768 < size <=   131072                 342                 13739280
    131072 < size <=  4194304             4688688            6253005349136
   4194304 < size <= 16777216              198720            2127105371520
  16777216 < size                               0                        0
 -------------------------------------------------------------------------------

 *** WARNING in dbcsr_mm.F:295 :: Using a non-square number of MPI ranks ***
 *** might lead to poor performance. Used ranks: 24 Suggested: 25 49     ***

 -------------------------------------------------------------------------------
 -                                                                             -
 -                      DBCSR MESSAGE PASSING PERFORMANCE                      -
 -                                                                             -
 -------------------------------------------------------------------------------
 ROUTINE             CALLS      AVE VOLUME [Bytes]
 MP_Group             1190
 MP_Bcast              160                     12.
 MP_Allreduce        54694                    127.
 MP_Alltoall         46680                 697270.
 MP_Wait            603344
 MP_ISend           496988                 772730.
 MP_IRecv           488656                 779362.
 MP_Memory         1007602
 -------------------------------------------------------------------------------

 MEMORY| Estimated peak process memory [MiB]                                 858

 -------------------------------------------------------------------------------
 -                                                                             -
 -                         MESSAGE PASSING PERFORMANCE                         -
 -                                                                             -
 -------------------------------------------------------------------------------

 ROUTINE             CALLS      AVE VOLUME [Bytes]
 MP_Group                5
 MP_Bcast            34822                 242885.
 MP_Allreduce        90898                   1227.
 MP_Sync                 5
 MP_Alltoall         12751               34059031.
 MP_SendRecv          3312                  15783.
 MP_ISendRecv        80316                 127093.
 MP_Wait            158239
 MP_ISend            69556                 802993.
 MP_IRecv            69556                 803164.
 MP_Recv              5006                1420514.
 -------------------------------------------------------------------------------


 -------------------------------------------------------------------------------
 -                                                                             -
 -                           R E F E R E N C E S                               -
 -                                                                             -
 -------------------------------------------------------------------------------
 
 CP2K version 7.1, the CP2K developers group (2019).
 CP2K is freely available from https://www.cp2k.org/ .

 Schuett, Ole; Messmer, Peter; Hutter, Juerg; VandeVondele, Joost. 
 Electronic Structure Calculations on Graphics Processing Units, John
 Wiley & Sons, Ltd, 173-190 (2016). 
 GPU-Accelerated Sparse Matrix-Matrix Multiplication for
 Linear Scaling Density Functional Theory.
 https://dx.doi.org/10.1002/9781118670712.ch8

 Borstnik, U; VandeVondele, J; Weber, V; Hutter, J. 
 PARALLEL COMPUTING, 40 (5-6), 47-58 (2014). 
 Sparse matrix multiplication: The distributed block-compressed sparse
 row library.
 https://dx.doi.org/10.1016/j.parco.2014.03.012

 Hutter, J; Iannuzzi, M; Schiffmann, F; VandeVondele, J. 
 WIREs Comput Mol Sci., 4 (1), 15-25 (2014). 
 CP2K: atomistic simulations of condensed matter systems.
 https://dx.doi.org/10.1002/wcms.1159

 Grimme, S; Ehrlich, S; Goerigk, L. 
 JOURNAL OF COMPUTATIONAL CHEMISTRY, 32, 1456 (2011). 
 Effect of the damping function in dispersion corrected density functional theory.
 https://dx.doi.org/10.1002/jcc.21759

 Grimme, S; Antony, J; Ehrlich, S; Krieg, H. 
 JOURNAL OF CHEMICAL PHYSICS, 132 (15), 154104 (2010). 
 A consistent and accurate ab initio parametrization of density
 functional dispersion correction (DFT-D) for the 94 elements H-Pu.
 https://dx.doi.org/10.1063/1.3382344

 VandeVondele, J; Hutter, J. 
 JOURNAL OF CHEMICAL PHYSICS, 127 (11), 114105 (2007). 
 Gaussian basis sets for accurate calculations on molecular systems in
 gas and condensed phases.
 https://dx.doi.org/10.1063/1.2770708

 Krack, M. 
 THEORETICAL CHEMISTRY ACCOUNTS, 114 (1-3), 145-152 (2005). 
 Pseudopotentials for H to Kr optimized for gradient-corrected
 exchange-correlation functionals.
 https://dx.doi.org/10.1007/s00214-005-0655-y

 VandeVondele, J; Krack, M; Mohamed, F; Parrinello, M; Chassaing, T;
 Hutter, J. COMPUTER PHYSICS COMMUNICATIONS, 167 (2), 103-128 (2005). 
 QUICKSTEP: Fast and accurate density functional calculations using a
 mixed Gaussian and plane waves approach.
 https://dx.doi.org/10.1016/j.cpc.2004.12.014

 Frigo, M; Johnson, SG. 
 PROCEEDINGS OF THE IEEE, 93 (2), 216-231 (2005). 
 The design and implementation of FFTW3.
 https://dx.doi.org/10.1109/JPROC.2004.840301

 Kolafa, J. 
 JOURNAL OF COMPUTATIONAL CHEMISTRY, 25 (3), 335-342 (2004). 
 Time-reversible always stable predictor-corrector method for molecular dynamics of polarizable molecules.
 https://dx.doi.org/10.1002/jcc.10385

 VandeVondele, J; Hutter, J. 
 JOURNAL OF CHEMICAL PHYSICS, 118 (10), 4365-4369 (2003). 
 An efficient orbital transformation method for electronic structure
 calculations.
 https://dx.doi.org/10.1063/1.1543154

 Hartwigsen, C; Goedecker, S; Hutter, J. 
 PHYSICAL REVIEW B, 58 (7), 3641-3662 (1998). 
 Relativistic separable dual-space Gaussian pseudopotentials from H to Rn.
 https://dx.doi.org/10.1103/PhysRevB.58.3641

 Lippert, G; Hutter, J; Parrinello, M. 
 MOLECULAR PHYSICS, 92 (3), 477-487 (1997). 
 A hybrid Gaussian and plane wave density functional scheme.
 https://dx.doi.org/10.1080/002689797170220

 Perdew, JP; Burke, K; Ernzerhof, M. 
 PHYSICAL REVIEW LETTERS, 77 (18), 3865-3868 (1996). 
 Generalized gradient approximation made simple.
 https://dx.doi.org/10.1103/PhysRevLett.77.3865

 Goedecker, S; Teter, M; Hutter, J. 
 PHYSICAL REVIEW B, 54 (3), 1703-1710 (1996). 
 Separable dual-space Gaussian pseudopotentials.
 https://dx.doi.org/10.1103/PhysRevB.54.1703


 -------------------------------------------------------------------------------
 -                                                                             -
 -                                T I M I N G                                  -
 -                                                                             -
 -------------------------------------------------------------------------------
 SUBROUTINE                       CALLS  ASD         SELF TIME        TOTAL TIME
                                MAXIMUM       AVERAGE  MAXIMUM  AVERAGE  MAXIMUM
 CP2K                                 1  1.0    0.016    0.018 7173.103 7173.111
 cp_geo_opt                           1  2.0    0.000    0.000 7171.810 7171.817
 geoopt_bfgs                          1  3.0    0.233    0.265 7171.810 7171.817
 cp_eval_at                          37  4.0    0.008    0.068 7147.755 7147.821
 qs_forces                           36  5.0    0.011    0.012 7088.322 7088.330
 qs_energies                         37  6.0    0.003    0.004 6817.100 6817.292
 scf_env_do_scf                      37  7.0    0.002    0.005 6581.922 6581.967
 scf_env_do_scf_inner_loop          715  8.0    0.029    0.068 5284.032 5291.231
 rebuild_ks_matrix                  751  9.9    0.004    0.004 2577.382 2581.651
 qs_ks_build_kohn_sham_matrix       751 10.9    0.097    0.107 2577.379 2581.648
 qs_ks_update_qs_env                753  9.0    0.005    0.006 2327.579 2331.487
 dbcsr_multiply_generic           10774 13.8    0.811    0.886 1841.934 1865.509
 qs_scf_new_mos                     715  9.0    0.005    0.010 1796.236 1805.354
 qs_scf_loop_do_ot                  715 10.0    0.005    0.007 1796.231 1805.344
 ot_scf_mini                        715 11.0    0.024    0.032 1679.520 1681.432
 multiply_cannon                  10774 14.8    2.135    2.498 1534.020 1602.460
 multiply_cannon_multrec         129288 15.8 1311.041 1393.923 1311.160 1394.035
 qs_rho_update_rho                  752  9.0    0.004    0.006 1388.968 1392.241
 calculate_rho_elec                 752 10.0  955.636  988.662 1388.964 1392.237
 init_scf_loop                       38  8.0    0.002    0.002 1289.443 1289.515
 sum_up_and_integrate               412 11.7    2.028    2.077 1220.558 1220.777
 integrate_v_rspace                 412 12.7 1036.364 1047.173 1218.529 1218.789
 qs_vxc_create                      751 11.9    0.014    0.015 1117.764 1118.344
 prepare_preconditioner              38  9.0    0.000    0.000 1079.477 1080.141
 pw_transfer                      12424 13.3    0.964    1.067 1047.380 1057.818
 make_preconditioner                 38 10.0    0.001    0.001 1043.640 1044.108
 fft_wrap_pw1pw2                  10922 14.4    0.136    0.154 1031.302 1041.853
 make_full_all                       38 11.0    0.068    0.083 1009.759 1009.811
 fft_wrap_pw1pw2_180               6266 15.6   88.332   89.974  994.689 1004.322
 ot_mini                            715 12.0    0.005    0.006  994.462 1000.049
 xc_rho_set_and_dset_create         751 13.9    6.288    6.398  799.061  803.843
 fft3d_ps                         10922 16.4  429.760  437.218  772.805  786.993
 cp_fm_syevd                        650 13.9    0.011    0.014  782.035  784.384
 cp_fm_syevd_base                   650 14.9  782.023  784.373  782.023  784.373
 xc_vxc_pw_create                   412 12.7   19.556   21.398  754.302  754.899
 apply_preconditioner_dbcsr         414 14.0    0.001    0.001  562.379  572.674
 apply_all                          414 15.0    1.013    1.070  562.378  572.673
 ot_new_cg_direction                376 13.0    0.007    0.009  524.285  524.308
 qs_ot_get_derivative               376 13.0    0.004    0.006  465.069  468.869
 density_rs2pw                      752 11.0    0.053    0.064  390.476  417.088
 xc_functional_eval                 751 14.9    0.008    0.011  364.351  368.949
 pbe_lda_eval                       751 15.9  364.343  368.942  364.343  368.942
 xc_exc_calc                        339 13.0    1.431    1.434  363.448  363.472
 qs_ot_get_p                        753 11.9    0.005    0.006  294.517  307.084
 mp_waitall_1                    692027 17.1  200.866  256.668  200.866  256.668
 qs_ks_update_qs_env_forces          36  6.0    0.000    0.000  252.359  252.734
 x_to_yz                           5477 18.1  166.265  167.466  223.872  227.896
 qs_ot_get_orbitals                 715 12.0    0.005    0.006  217.496  222.240
 rs_pw_transfer                    5893 13.0    0.090    0.101  195.157  221.986
 qs_ot_get_derivative_diag          249 14.0    0.008    0.010  209.246  212.320
 make_m2s                         21548 14.8    0.789    0.901  198.415  200.956
 multiply_cannon_metrocomm3      129288 15.8    0.336    0.371  130.020  189.197
 init_scf_run                        37  7.0    0.001    0.002  176.268  176.274
 scf_env_initial_rho_setup           37  8.0    0.000    0.001  176.267  176.273
 wfi_extrapolate                     37  9.0    0.006    0.007  172.354  172.355
 cp_gemm                            604 10.2    0.002    0.003  169.347  170.142
 cp_gemm_fm_gemm                    604 11.2    0.002    0.003  169.345  170.139
 cp_fm_gemm                         604 12.2  169.343  170.138  169.343  170.138
 qs_ot_p2m_diag                     500 13.0    7.348    7.970  162.414  163.733
 potential_pw2rs                    412 13.7    0.153    0.218  152.750  152.979
 cp_dbcsr_syevd                     576 13.7    0.039    0.057  142.961  143.924
 -------------------------------------------------------------------------------

 The number of warnings for this run is : 2
 
 -------------------------------------------------------------------------------
  **** **** ******  **  PROGRAM ENDED AT                 2022-07-05 21:05:07.123
 ***** ** ***  *** **   PROGRAM RAN ON             node0251.palmetto.clemson.edu
 **    ****   ******    PROGRAM RAN BY                                   xiutinc
 ***** **    ** ** **   PROGRAM PROCESS ID                               2688933
  **** **  *******  **  PROGRAM STOPPED IN  /scratch1/xiutinc/CP2K-5305492.pbs02
