ITEM: TIMESTEP
2500000
ITEM: NUMBER OF ATOMS
5487
ITEM: BOX BOUNDS pp pp pp
2.4900000000000000e-01 2.4248999999999999e+01
2.5950000000000001e-01 2.4259499999999999e+01
0.0000000000000000e+00 1.0536952658408562e+02
ITEM: ATOMS id mol type q x y z
1 1 2 0.417 14.4451 19.3877 75.4087
2 1 2 0.417 13.6115 18.3481 76.1465
3 1 5 -0.834 13.7183 18.7403 75.2652
4 2 2 0.417 12.5571 1.09723 76.4274
5 2 2 0.417 13.5272 0.318509 75.6559
6 2 5 -0.834 12.773 0.886305 75.4741
7 3 2 0.417 21.8103 1.23513 79.4197
8 3 2 0.417 20.2808 1.18807 79.1195
9 3 5 -0.834 21.1336 0.901554 78.7318
10 4 2 0.417 23.8844 17.9393 58.5939
11 4 2 0.417 0.944446 18.2284 59.5936
12 4 5 -0.834 0.734945 18.3329 58.6666
13 5 2 0.417 1.74845 14.1292 34.1085
14 5 2 0.417 0.968385 14.9473 35.1412
15 5 5 -0.834 1.05447 13.9673 34.7917
16 6 2 0.417 15.6844 11.7661 60.7944
17 6 2 0.417 14.2158 12.0595 61.1511
18 6 5 -0.834 14.8875 12.2951 60.5451
19 7 2 0.417 13.8836 7.79194 58.1938
20 7 2 0.417 14.5516 9.02798 57.6529
21 7 5 -0.834 14.737 8.0827 57.7988
22 8 2 0.417 8.63888 5.56255 17.2988
23 8 2 0.417 9.54477 6.66761 17.4002
24 8 5 -0.834 8.82523 6.27266 17.8772
25 9 2 0.417 6.12463 2.23284 91.0071
26 9 2 0.417 6.25498 1.02034 91.935
27 9 5 -0.834 6.24875 2.0058 91.9542
28 10 2 0.417 12.5819 1.61581 45.657
29 10 2 0.417 11.0814 1.60539 45.4095
30 10 5 -0.834 11.8219 2.21704 45.6563
31 11 2 0.417 7.52027 0.596125 38.5466
32 11 2 0.417 8.16986 23.4964 39.1549
33 11 5 -0.834 8.3943 0.352871 38.8329
34 12 2 0.417 0.647096 14.9792 84.883
35 12 2 0.417 1.46841 14.0216 83.9807
36 12 5 -0.834 0.78095 14.0245 84.6337
37 13 2 0.417 22.6655 23.6778 60.6522
38 13 2 0.417 21.3305 23.7793 61.2096
39 13 5 -0.834 22.2698 23.7097 61.4947
40 14 2 0.417 19.0805 20.4355 83.7407
41 14 2 0.417 19.6111 21.7366 83.2373
42 14 5 -0.834 18.9435 21.043 82.9934
43 15 2 0.417 20.3816 18.3918 102.744
44 15 2 0.417 21.6311 18.5014 101.945
45 15 5 -0.834 21.0418 19.075 102.499
46 16 2 0.417 17.4393 19.2817 89.5315
47 16 2 0.417 18.5446 18.3143 89.9003
48 16 5 -0.834 17.6253 18.3678 89.4706
49 17 2 0.417 13.7524 18.8095 61.2114
50 17 2 0.417 14.8857 19.1327 60.4557
51 17 5 -0.834 14.0895 18.6885 60.3518
52 18 2 0.417 18.5918 22.4787 73.8118
53 18 2 0.417 18.2493 21.1216 74.4146
54 18 5 -0.834 18.2832 21.5821 73.5956
55 19 2 0.417 10.2187 10.3521 61.8989
56 19 2 0.417 9.59979 10.8662 63.0669
57 19 5 -0.834 9.3472 10.3674 62.2924
58 20 2 0.417 10.8771 20.0532 88.542
59 20 2 0.417 10.8524 19.5681 87.1226
60 20 5 -0.834 10.2524 19.6568 87.9018
61 21 2 0.417 6.27664 7.78886 81.5548
62 21 2 0.417 7.68899 7.8261 81.0231
63 21 5 -0.834 7.00482 7.18185 81.4028
64 22 2 0.417 12.5073 3.04998 91.1033
65 22 2 0.417 13.078 2.17949 92.2548
66 22 5 -0.834 12.6907 2.15726 91.3567
67 23 2 0.417 15.5184 8.23356 61.0659
68 23 2 0.417 15.4167 8.82176 59.6603
69 23 5 -0.834 16.0445 8.70847 60.4636
70 24 2 0.417 7.81812 3.84151 39.3428
71 24 2 0.417 6.40491 3.52244 39.6004
72 24 5 -0.834 6.93642 3.97439 38.8991
73 25 2 0.417 22.5251 8.90601 52.066
74 25 2 0.417 23.5532 8.1817 52.9405
75 25 5 -0.834 23.5404 8.88313 52.201
76 26 2 0.417 10.2811 6.07981 37.249
77 26 2 0.417 11.3625 6.07485 36.1613
78 26 5 -0.834 10.4102 6.00028 36.2655
79 27 2 0.417 18.8749 14.6364 62.2371
80 27 2 0.417 19.9374 15.2093 62.9441
81 27 5 -0.834 19.6869 15.0647 62.0026
82 28 2 0.417 13.1748 16.8355 48.994
83 28 2 0.417 12.7015 18.1574 48.5172
84 28 5 -0.834 12.5093 17.206 48.3418
85 29 2 0.417 10.4834 9.38684 52.0709
86 29 2 0.417 10.0998 10.3458 53.0569
87 29 5 -0.834 9.87952 10.1627 52.156
88 30 2 0.417 5.43547 16.9855 62.3567
89 30 2 0.417 6.67161 16.3877 63.0136
90 30 5 -0.834 5.87742 16.1526 62.4902
91 31 2 0.417 10.9988 11.6172 104.87
92 31 2 0.417 10.8385 10.4272 103.825
93 31 5 -0.834 10.6135 10.6834 104.762
94 32 2 0.417 22.2232 21.6402 85.562
95 32 2 0.417 22.6652 22.8132 86.4111
96 32 5 -0.834 22.8136 22.4317 85.4686
97 33 2 0.417 6.05802 19.3245 62.2951
98 33 2 0.417 6.7889 20.6537 62.1088
99 33 5 -0.834 6.93147 19.7268 62.3411
100 34 2 0.417 1.597 5.4492 37.3715
101 34 2 0.417 0.427404 4.57449 37.8576
102 34 5 -0.834 1.01387 5.25421 38.1753
103 35 2 0.417 2.71926 17.448 97.8751
104 35 2 0.417 2.14437 17.6653 99.2195
105 35 5 -0.834 2.94804 17.4019 98.7913
106 36 2 0.417 7.3176 2.94166 81.1365
107 36 2 0.417 6.64598 2.03295 82.0315
108 36 5 -0.834 7.13998 1.99997 81.2177
109 37 2 0.417 11.9305 7.41331 50.1983
110 37 2 0.417 12.4307 8.45286 51.1545
111 37 5 -0.834 11.5731 8.12424 50.7398
112 38 2 0.417 24.0521 6.1997 48.5892
113 38 2 0.417 0.5472 4.97322 47.8455
114 38 5 -0.834 0.542462 5.39225 48.6708
115 39 2 0.417 14.3126 12.1527 55.2411
116 39 2 0.417 13.4825 11.7031 56.4574
117 39 5 -0.834 13.4514 11.869 55.4632
118 40 2 0.417 20.8553 10.9969 11.1332
119 40 2 0.417 20.8202 9.57801 10.8646
120 40 5 -0.834 20.1786 10.2708 11.0324
121 41 2 0.417 10.1572 10.6853 81.6094
122 41 2 0.417 10.7961 9.48149 82.1022
123 41 5 -0.834 10.4582 9.79624 81.2824
124 42 2 0.417 6.13612 16.7422 65.9824
125 42 2 0.417 6.87472 18.002 66.3781
126 42 5 -0.834 6.13704 17.6847 65.7759
127 43 2 0.417 9.29162 7.27487 73.1514
128 43 2 0.417 9.72629 7.51868 74.6196
129 43 5 -0.834 8.90875 7.51717 74.0544
130 44 2 0.417 2.19947 22.3174 21.9239
131 44 2 0.417 1.14135 23.2242 22.2564
132 44 5 -0.834 1.27501 22.4301 21.7767
133 45 2 0.417 5.69158 19.1395 8.87373
134 45 2 0.417 6.89326 19.9515 9.13988
135 45 5 -0.834 6.40059 19.2129 9.50875
136 46 2 0.417 6.962 8.32937 53.4555
137 46 2 0.417 6.45647 7.50343 52.3326
138 46 5 -0.834 6.32951 8.38289 52.7216
139 47 2 0.417 8.2662 5.34541 76.5526
140 47 2 0.417 7.43415 4.1858 76.838
141 47 5 -0.834 7.55703 4.86515 76.1214
142 48 2 0.417 7.08659 17.8258 86.0696
143 48 2 0.417 8.66432 18.0312 86.1373
144 48 5 -0.834 7.88602 18.2621 85.5981
145 49 2 0.417 8.08295 14.1368 94.1222
146 49 2 0.417 7.53303 15.6281 94.1052
147 49 5 -0.834 7.72698 14.8827 94.6632
148 50 2 0.417 15.6676 8.31163 39.0503
149 50 2 0.417 17.0159 8.77475 39.1929
150 50 5 -0.834 16.5504 8.04437 38.8448
151 51 2 0.417 12.4199 18.8757 70.1837
152 51 2 0.417 13.1481 19.5826 71.2664
153 51 5 -0.834 12.7963 19.761 70.3642
154 52 2 0.417 5.21591 17.7692 83.964
155 52 2 0.417 6.76722 18.0166 83.8116
156 52 5 -0.834 5.85312 18.2128 83.4434
157 53 2 0.417 17.9821 19.9037 22.0212
158 53 2 0.417 18.3647 21.2133 22.689
159 53 5 -0.834 17.602 20.7656 22.2683
160 54 2 0.417 3.35161 0.312914 56.6724
161 54 2 0.417 4.12989 24.0258 55.306
162 54 5 -0.834 3.39744 0.609071 55.7221
163 55 2 0.417 22.5627 3.44815 36.3844
164 55 2 0.417 21.2711 4.02096 35.8446
165 55 5 -0.834 21.7505 3.21444 35.9744
166 56 2 0.417 1.74885 3.65189 78.7509
167 56 2 0.417 1.56111 4.39154 77.4621
168 56 5 -0.834 1.28687 3.54507 77.8744
169 57 2 0.417 10.4584 15.9566 35.7611
170 57 2 0.417 9.03558 16.4177 35.6778
171 57 5 -0.834 9.56196 15.6098 35.4951
172 58 2 0.417 3.08515 20.8712 47.1992
173 58 2 0.417 2.67129 20.025 46.0416
174 58 5 -0.834 3.01575 20.9504 46.2015
175 59 2 0.417 13.4264 11.4037 37.4539
176 59 2 0.417 14.6471 11.1801 36.5715
177 59 5 -0.834 13.7977 10.7375 36.8227
178 60 2 0.417 7.93061 20.9303 86.0807
179 60 2 0.417 7.81332 19.9921 84.9953
180 60 5 -0.834 7.90002 20.9483 85.1467
181 61 2 0.417 7.87551 21.9477 53.7162
182 61 2 0.417 6.98644 23.0807 53.3263
183 61 5 -0.834 7.05815 22.0997 53.2398
184 62 2 0.417 5.23896 16.1361 74.3999
185 62 2 0.417 6.61866 16.7302 74.3816
186 62 5 -0.834 6.01211 16.2334 73.7902
187 63 2 0.417 14.6238 20.0369 35.2775
188 63 2 0.417 13.9223 21.3493 35.3675
189 63 5 -0.834 14.8222 21.0082 35.3827
190 64 2 0.417 23.5199 11.3885 30.8578
191 64 2 0.417 22.1154 11.6158 31.4606
192 64 5 -0.834 23.0404 11.9803 31.478
193 65 2 0.417 12.638 0.43678 35.634
194 65 2 0.417 11.7118 1.28291 35.0362
195 65 5 -0.834 12.6422 1.26371 35.0914
196 66 2 0.417 11.4358 22.6515 59.2483
197 66 2 0.417 10.0646 22.9249 59.8924
198 66 5 -0.834 11.0091 22.7436 60.1671
199 67 2 0.417 20.6175 5.67125 48.4693
200 67 2 0.417 21.7111 6.0765 47.5938
201 67 5 -0.834 21.2911 6.38156 48.3525
202 68 2 0.417 19.0806 3.53686 45.7426
203 68 2 0.417 20.549 3.06153 45.6378
204 68 5 -0.834 20.0256 3.84477 45.5664
205 69 2 0.417 3.14416 19.4997 13.3362
206 69 2 0.417 1.97306 19.6401 14.3605
207 69 5 -0.834 2.41594 20.0877 13.637
208 70 2 0.417 0.753601 23.7961 87.8583
209 70 2 0.417 0.772157 23.2621 89.2896
210 70 5 -0.834 1.30104 23.2752 88.5181
211 71 2 0.417 13.8024 15.5831 42.9417
212 71 2 0.417 13.4784 16.8819 43.6003
213 71 5 -0.834 13.8575 16.5352 42.7526
214 72 2 0.417 17.4464 11.4097 85.1298
215 72 2 0.417 18.1189 12.6087 85.3331
216 72 5 -0.834 18.3541 11.6883 85.4892
217 73 2 0.417 18.1451 21.0787 88.5813
218 73 2 0.417 17.8932 22.1075 87.5503
219 73 5 -0.834 18.4973 21.3898 87.7135
220 74 2 0.417 9.43552 0.469756 65.5305
221 74 2 0.417 9.05467 0.498463 67.0352
222 74 5 -0.834 9.37488 23.9167 66.3455
223 75 2 0.417 0.377592 5.98212 83.8318
224 75 2 0.417 0.839559 6.05665 82.3597
225 75 5 -0.834 0.3527 6.55161 83.0425
226 76 2 0.417 7.45227 5.58965 41.639
227 76 2 0.417 8.54523 6.56938 42.1447
228 76 5 -0.834 8.191 6.22195 41.273
229 77 2 0.417 3.22591 17.1744 66.0599
230 77 2 0.417 4.36486 17.7068 65.322
231 77 5 -0.834 3.49264 17.4697 65.1229
232 78 2 0.417 19.3454 17.2916 72.5121
233 78 2 0.417 19.358 18.7114 71.8363
234 78 5 -0.834 19.5779 17.7502 71.6848
235 79 2 0.417 12.5011 10.3898 55.0855
236 79 2 0.417 11.5369 9.94955 56.0985
237 79 5 -0.834 12.0104 9.57242 55.2878
238 80 2 0.417 2.76593 7.83937 74.9228
239 80 2 0.417 1.5804 8.90843 74.8085
240 80 5 -0.834 2.01675 8.10165 74.3417
241 81 2 0.417 10.7614 4.63179 63.7894
242 81 2 0.417 11.448 3.94972 64.9618
243 81 5 -0.834 11.3389 3.86342 64.0091
244 82 2 0.417 5.70232 19.8431 13.6539
245 82 2 0.417 6.66244 18.9759 12.9945
246 82 5 -0.834 5.8692 18.8628 13.4505
247 83 2 0.417 14.34 15.46 58.2393
248 83 2 0.417 15.7604 15.0629 58.2045
249 83 5 -0.834 14.9706 15.1878 57.544
250 84 2 0.417 8.9357 12.7983 71.4012
251 84 2 0.417 8.72058 11.4002 72.0711
252 84 5 -0.834 8.81196 11.8328 71.1872
253 85 2 0.417 11.3925 9.85557 79.5856
254 85 2 0.417 12.7731 9.57426 78.9643
255 85 5 -0.834 11.8416 9.86067 78.7576
256 86 2 0.417 21.209 12.5661 51.7042
257 86 2 0.417 20.1165 12.6448 52.6913
258 86 5 -0.834 20.4132 12.0652 52.0229
259 87 2 0.417 6.7781 15.7861 77.4952
260 87 2 0.417 5.79852 16.7303 78.2451
261 87 5 -0.834 5.8667 15.9939 77.5992
262 88 2 0.417 16.8698 8.87939 84.0029
263 88 2 0.417 16.5847 10.0406 83.0148
264 88 5 -0.834 16.9151 9.12515 83.0563
265 89 2 0.417 14.5222 8.54726 42.8923
266 89 2 0.417 15.952 8.40621 42.3066
267 89 5 -0.834 14.9937 8.2096 42.1151
268 90 2 0.417 20.8007 2.9268 88.9259
269 90 2 0.417 20.0635 4.32253 88.6182
270 90 5 -0.834 20.6952 3.65427 88.2444
271 91 2 0.417 16.8175 17.8297 52.9247
272 91 2 0.417 17.6879 18.738 53.5591
273 91 5 -0.834 17.4844 18.4446 52.6601
274 92 2 0.417 13.9582 12.1863 46.7739
275 92 2 0.417 15.1323 13.0855 46.8081
276 92 5 -0.834 14.7577 12.3876 46.2562
277 93 2 0.417 2.83273 5.64699 67.6867
278 93 2 0.417 3.59458 6.51211 66.8247
279 93 5 -0.834 3.13666 5.66898 66.7717
280 94 2 0.417 10.0773 16.4944 56.4095
281 94 2 0.417 8.77101 16.0383 57.0199
282 94 5 -0.834 9.14571 16.7023 56.4367
283 95 2 0.417 11.9646 13.568 61.5297
284 95 2 0.417 12.7067 14.323 60.4619
285 95 5 -0.834 12.0557 13.6073 60.547
286 96 2 0.417 14.8682 13.211 76.0645
287 96 2 0.417 15.0555 14.1412 77.0992
288 96 5 -0.834 15.6552 13.6177 76.508
289 97 2 0.417 23.8416 21.0454 66.8653
290 97 2 0.417 22.5204 20.6016 67.2148
291 97 5 -0.834 22.9834 21.4414 66.995
292 98 2 0.417 5.77858 10.4813 76.0446
293 98 2 0.417 5.09113 11.6095 75.4614
294 98 5 -0.834 5.40418 10.7378 75.1872
295 99 2 0.417 11.8768 0.295662 78.9143
296 99 2 0.417 13.1415 1.23953 78.5939
297 99 5 -0.834 12.2512 0.94364 78.2414
298 100 2 0.417 16.8015 2.20987 75.0951
299 100 2 0.417 16.4168 0.712822 75.3239
300 100 5 -0.834 17.2245 1.32836 75.1902
301 101 2 0.417 17.8799 20.0388 103.639
302 101 2 0.417 16.5354 19.9981 102.95
303 101 5 -0.834 17.0882 19.4407 103.554
304 102 2 0.417 16.9084 24.23 64.3173
305 102 2 0.417 17.2897 23.5568 63.0804
306 102 5 -0.834 17.4438 0.369711 63.5592
307 103 2 0.417 9.15845 19.7179 68.8701
308 103 2 0.417 10.1537 20.6642 69.4399
309 103 5 -0.834 9.76726 19.7414 69.5612
310 104 2 0.417 6.54732 15.2954 84.7815
311 104 2 0.417 8.0523 15.1744 85.262
312 104 5 -0.834 7.39746 14.7907 84.6477
313 105 2 0.417 23.0506 12.6262 55.8176
314 105 2 0.417 22.4302 11.3301 55.9811
315 105 5 -0.834 22.1695 12.2283 55.9416
316 106 2 0.417 9.70609 3.15909 40.8532
317 106 2 0.417 9.8075 2.51327 39.477
318 106 5 -0.834 9.46873 3.34434 39.9018
319 107 2 0.417 7.48215 23.6782 81.0933
320 107 2 0.417 7.89839 22.5842 82.0607
321 107 5 -0.834 8.00278 22.868 81.1034
322 108 2 0.417 11.77 22.2016 67.892
323 108 2 0.417 11.3209 23.264 66.9792
324 108 5 -0.834 12.0413 22.6152 67.0723
325 109 2 0.417 18.6247 20.2628 86.2983
326 109 2 0.417 18.1294 18.9189 86.1846
327 109 5 -0.834 18.7391 19.5312 85.7787
328 110 2 0.417 12.9505 12.2803 4.75044
329 110 2 0.417 13.9501 12.3921 3.65758
330 110 5 -0.834 13.6281 12.919 4.37805
331 111 2 0.417 10.8702 20.5292 71.8653
332 111 2 0.417 10.0235 20.3299 73.1253
333 111 5 -0.834 10.3148 21.0317 72.4144
334 112 2 0.417 9.97676 18.6272 59.8316
335 112 2 0.417 11.3476 18.2534 60.1252
336 112 5 -0.834 10.7898 18.439 59.3857
337 113 2 0.417 10.3701 2.24755 58.7343
338 113 2 0.417 10.334 2.39362 57.2
339 113 5 -0.834 10.18 1.70747 57.8745
340 114 2 0.417 6.65526 23.6212 89.2551
341 114 2 0.417 5.41556 23.1868 88.5262
342 114 5 -0.834 6.13956 23.7974 88.4638
343 115 2 0.417 1.00723 20.5805 99.6097
344 115 2 0.417 1.00073 20.3718 101.075
345 115 5 -0.834 0.811692 19.888 100.256
346 116 2 0.417 22.6152 12.6714 33.2918
347 116 2 0.417 23.4551 13.0556 34.507
348 116 5 -0.834 22.7042 12.4684 34.2623
349 117 2 0.417 11.4969 1.7879 11.8829
350 117 2 0.417 11.9837 3.0398 12.34
351 117 5 -0.834 12.3401 2.17705 12.1475
352 118 2 0.417 20.189 13.4127 5.65129
353 118 2 0.417 19.5226 12.2165 5.04106
354 118 5 -0.834 20.2084 12.4693 5.73207
355 119 2 0.417 20.1274 0.953742 90.4005
356 119 2 0.417 21.1616 1.9321 90.854
357 119 5 -0.834 20.5702 1.77426 90.0914
358 120 2 0.417 1.75326 18.5154 57.2821
359 120 2 0.417 2.56877 19.6799 56.9462
360 120 5 -0.834 2.52748 18.7008 56.7294
361 121 2 0.417 7.76876 10.3316 65.8543
362 121 2 0.417 7.19243 11.5469 66.3962
363 121 5 -0.834 7.73623 11.2798 65.6799
364 122 2 0.417 11.76 24.1738 91.3047
365 122 2 0.417 11.4743 22.8529 91.7456
366 122 5 -0.834 12.1593 23.2803 91.1962
367 123 2 0.417 20.4841 6.92573 62.7332
368 123 2 0.417 21.6398 6.41498 62.0964
369 123 5 -0.834 21.3151 7.2994 62.3488
370 124 2 0.417 12.6845 4.03492 98.6739
371 124 2 0.417 13.061 3.69676 97.267
372 124 5 -0.834 12.6304 3.25531 98.0941
373 125 2 0.417 6.11576 5.20084 50.8683
374 125 2 0.417 4.82876 5.56253 51.5747
375 125 5 -0.834 5.26497 5.70226 50.7406
376 126 2 0.417 12.0086 18.1981 73.1571
377 126 2 0.417 13.1592 18.8967 73.7008
378 126 5 -0.834 12.7376 18.759 72.8605
379 127 2 0.417 8.10581 17.6066 79.6789
380 127 2 0.417 8.8288 17.6299 80.8826
381 127 5 -0.834 8.50298 16.9423 80.3
382 128 2 0.417 11.0402 10.9347 38.435
383 128 2 0.417 10.618 9.64433 39.161
384 128 5 -0.834 10.6249 10.0584 38.2756
385 129 2 0.417 6.36072 16.4954 51.3408
386 129 2 0.417 6.73364 15.0118 51.1393
387 129 5 -0.834 6.4447 15.8247 50.5955
388 130 2 0.417 19.0449 21.8502 59.1955
389 130 2 0.417 18.4188 20.4881 59.1438
390 130 5 -0.834 19.3474 20.9288 59.1307
391 131 2 0.417 13.5597 8.11972 85.5601
392 131 2 0.417 12.5169 9.08959 86.2584
393 131 5 -0.834 13.2576 9.0694 85.5544
394 132 2 0.417 19.815 7.38016 53.1387
395 132 2 0.417 19.2243 7.22386 51.7032
396 132 5 -0.834 18.9537 7.33015 52.6532
397 133 2 0.417 20.6028 8.41679 77.8073
398 133 2 0.417 20.7345 9.64877 77.1718
399 133 5 -0.834 20.3331 8.83618 76.9835
400 134 2 0.417 4.10329 13.3227 42.9397
401 134 2 0.417 4.82848 13.5685 44.1873
402 134 5 -0.834 4.57225 14.0433 43.4102
403 135 2 0.417 6.00394 15.372 89.4184
404 135 2 0.417 6.0328 13.9023 89.2822
405 135 5 -0.834 5.95125 14.6486 88.7415
406 136 2 0.417 4.35281 18.1148 34.8317
407 136 2 0.417 3.69703 18.2627 36.1829
408 136 5 -0.834 3.76004 17.6033 35.446
409 137 2 0.417 0.63529 12.0545 50.0718
410 137 2 0.417 0.921216 13.4485 49.4603
411 137 5 -0.834 0.749995 12.5452 49.1814
412 138 2 0.417 7.72912 22.749 66.6252
413 138 2 0.417 6.53597 21.8757 66.4502
414 138 5 -0.834 6.91242 22.5586 67.0481
415 139 2 0.417 23.8179 15.4315 90.5705
416 139 2 0.417 0.36337 14.5716 89.4582
417 139 5 -0.834 23.8999 15.4024 89.5702
418 140 2 0.417 12.7614 13.8053 64.0738
419 140 2 0.417 11.4488 13.1601 63.9328
420 140 5 -0.834 12.135 13.672 63.3833
421 141 2 0.417 6.33995 19.5544 72.582
422 141 2 0.417 6.94991 19.5138 74.0266
423 141 5 -0.834 6.25752 19.9192 73.4739
424 142 2 0.417 10.7907 17.1093 72.8571
425 142 2 0.417 11.2035 15.5885 73.1638
426 142 5 -0.834 11.2001 16.5302 73.572
427 143 2 0.417 13.9042 18.5662 79.1831
428 143 2 0.417 15.201 18.6627 78.4882
429 143 5 -0.834 14.395 18.0856 78.4864
430 144 2 0.417 3.85237 7.60296 80.537
431 144 2 0.417 4.11971 6.81797 79.3276
432 144 5 -0.834 3.42543 7.12992 79.8244
433 145 2 0.417 13.062 10.9351 63.5841
434 145 2 0.417 13.9231 10.1626 62.6493
435 145 5 -0.834 13.583 11.0565 62.7131
436 146 2 0.417 0.34888 14.3739 10.7891
437 146 2 0.417 0.742041 13.9083 9.35811
438 146 5 -0.834 24.1961 13.6138 10.1634
439 147 2 0.417 23.0299 18.7371 39.3833
440 147 2 0.417 23.2153 20.249 39.4199
441 147 5 -0.834 23.4844 19.4196 38.929
442 148 2 0.417 5.51606 11.429 36.6415
443 148 2 0.417 6.05823 10.1924 37.3426
444 148 5 -0.834 5.82545 10.537 36.4135
445 149 2 0.417 4.86987 6.83099 1.54809
446 149 2 0.417 6.20202 7.35978 1.55915
447 149 5 -0.834 5.73858 6.55092 1.83098
448 150 2 0.417 8.02776 22.1542 58.2271
449 150 2 0.417 7.54893 21.0992 57.3421
450 150 5 -0.834 7.62608 22.0508 57.348
451 151 2 0.417 23.6766 7.32101 78.4842
452 151 2 0.417 23.584 6.36838 77.3587
453 151 5 -0.834 23.2772 6.5256 78.2616
454 152 2 0.417 1.83179 3.32879 6.86167
455 152 2 0.417 2.34135 2.22183 6.13983
456 152 5 -0.834 1.88895 2.32487 6.99126
457 153 2 0.417 10.2388 13.5974 57.2662
458 153 2 0.417 8.873 13.9765 57.1908
459 153 5 -0.834 9.52345 13.6904 56.6229
460 154 2 0.417 19.1347 18.5654 65.983
461 154 2 0.417 17.7259 18.101 66.0222
462 154 5 -0.834 18.4486 18.3725 65.3782
463 155 2 0.417 11.5381 21.393 33.0865
464 155 2 0.417 10.0827 21.9603 32.9514
465 155 5 -0.834 10.6562 21.4608 33.5972
466 156 2 0.417 24.2271 23.1581 84.4416
467 156 2 0.417 0.786925 23.5506 82.9871
468 156 5 -0.834 0.94724 23.6652 83.968
469 157 2 0.417 7.74975 9.83011 41.463
470 157 2 0.417 9.20123 9.9512 41.501
471 157 5 -0.834 8.50238 9.90672 40.8654
472 158 2 0.417 1.95557 2.29176 36.9777
473 158 2 0.417 3.15242 2.41408 37.7336
474 158 5 -0.834 2.22656 2.34758 37.8927
475 159 2 0.417 6.68831 1.6959 27.9578
476 159 2 0.417 7.90748 1.52229 28.8001
477 159 5 -0.834 7.05525 1.0856 28.6162
478 160 2 0.417 24.1925 22.3153 59.3861
479 160 2 0.417 0.925126 23.5527 59.6864
480 160 5 -0.834 0.503058 23.1227 58.908
481 161 2 0.417 6.66807 18.3344 76.082
482 161 2 0.417 8.06945 17.919 76.35
483 161 5 -0.834 7.48164 18.0695 75.5809
484 162 2 0.417 11.9612 9.74764 88.8073
485 162 2 0.417 11.358 8.34719 88.4757
486 162 5 -0.834 11.5089 9.24118 88.0974
487 163 2 0.417 23.1353 2.69033 58.37
488 163 2 0.417 22.272 3.43017 57.4578
489 163 5 -0.834 23.1418 3.02935 57.4766
490 164 2 0.417 2.37006 4.99438 91.7047
491 164 2 0.417 3.62409 5.73003 91.2559
492 164 5 -0.834 2.91438 5.76377 91.9476
493 165 2 0.417 4.22455 22.9076 71.857
494 165 2 0.417 5.34643 23.7901 72.0669
495 165 5 -0.834 4.73242 23.5678 71.3863
496 166 2 0.417 4.86407 2.16431 23.8495
497 166 2 0.417 5.62695 3.25551 23.3679
498 166 5 -0.834 5.61944 2.6463 24.1287
499 167 2 0.417 23.725 12.5798 38.6302
500 167 2 0.417 23.1761 11.4161 39.4952
501 167 5 -0.834 23.5473 11.5885 38.5639
502 168 2 0.417 23.0405 5.37798 42.647
503 168 2 0.417 22.1305 6.5366 42.3416
504 168 5 -0.834 22.3682 5.89305 43.0238
505 169 2 0.417 21.2285 1.92737 48.2634
506 169 2 0.417 21.1539 1.50118 49.6346
507 169 5 -0.834 21.3137 2.28355 49.1654
508 170 2 0.417 2.63018 3.35361 73.9647
509 170 2 0.417 3.22336 2.40398 72.9403
510 170 5 -0.834 3.50653 3.06216 73.6362
511 171 2 0.417 18.0116 3.21817 64.9793
512 171 2 0.417 18.2579 1.94183 64.1315
513 171 5 -0.834 18.7035 2.75198 64.4683
514 172 2 0.417 20.4296 15.6272 84.028
515 172 2 0.417 21.003 15.7179 82.7035
516 172 5 -0.834 21.1175 15.2044 83.5106
517 173 2 0.417 20.8006 18.5987 39.6472
518 173 2 0.417 19.474 19.4111 39.308
519 173 5 -0.834 20.3519 19.2646 38.951
520 174 2 0.417 8.25114 2.58238 84.7853
521 174 2 0.417 7.21971 1.43867 84.7267
522 174 5 -0.834 7.68973 2.05086 84.1848
523 175 2 0.417 2.53996 1.60777 53.9403
524 175 2 0.417 1.9117 0.423283 53.2321
525 175 5 -0.834 2.52681 1.14889 53.0373
526 176 2 0.417 23.4487 11.2632 60.4556
527 176 2 0.417 0.766564 11.5915 60.9226
528 176 5 -0.834 24.2192 11.7336 60.1208
529 177 2 0.417 19.9737 4.35855 57.9834
530 177 2 0.417 20.4077 4.87012 56.6418
531 177 5 -0.834 20.6472 4.18431 57.2668
532 178 2 0.417 0.322886 20.2133 22.8934
533 178 2 0.417 24.1023 21.0134 21.7944
534 178 5 -0.834 23.7887 20.2344 22.1284
535 179 2 0.417 4.56032 2.98511 82.7072
536 179 2 0.417 5.35279 4.29737 82.7997
537 179 5 -0.834 4.81987 3.74832 82.1849
538 180 2 0.417 4.3641 5.32489 23.9756
539 180 2 0.417 4.50047 5.50898 25.4701
540 180 5 -0.834 3.84189 5.22 24.8006
541 181 2 0.417 3.47705 16.3152 68.2999
542 181 2 0.417 3.81954 17.7141 68.2233
543 181 5 -0.834 3.19008 17.101 67.747
544 182 2 0.417 16.9399 13.6651 1.77212
545 182 2 0.417 18.3216 14.1024 2.04679
546 182 5 -0.834 17.7461 13.3248 2.25052
547 183 2 0.417 16.4038 15.2958 87.2764
548 183 2 0.417 17.1239 14.4102 88.2908
549 183 5 -0.834 17.0461 15.3175 87.9941
550 184 2 0.417 11.8365 12.3417 54.3916
551 184 2 0.417 10.4909 12.871 54.4141
552 184 5 -0.834 10.9692 12.1748 53.9855
553 185 2 0.417 9.46047 8.03726 54.3003
554 185 2 0.417 8.94936 7.06809 53.2886
555 185 5 -0.834 8.74227 7.45654 54.1122
556 186 2 0.417 8.86841 12.3971 89.8875
557 186 2 0.417 9.3112 13.5831 90.7013
558 186 5 -0.834 9.12978 13.304 89.7512
559 187 2 0.417 12.7392 17.6211 40.1039
560 187 2 0.417 12.941 16.7564 41.2625
561 187 5 -0.834 12.697 16.6722 40.2693
562 188 2 0.417 2.29825 2.57482 25.2148
563 188 2 0.417 2.52705 4.0207 24.9599
564 188 5 -0.834 1.85112 3.43883 25.3708
565 189 2 0.417 13.3291 12.0903 85.5167
566 189 2 0.417 14.0118 10.756 85.7437
567 189 5 -0.834 14.1811 11.7647 85.8247
568 190 2 0.417 7.19364 4.06072 61.137
569 190 2 0.417 8.64922 3.75433 61.1192
570 190 5 -0.834 8.06908 4.51404 61.1982
571 191 2 0.417 17.2707 13.742 39.8766
572 191 2 0.417 18.6251 13.3168 39.318
573 191 5 -0.834 18.1661 13.6834 40.1349
574 192 2 0.417 2.26718 13.6767 93.6894
575 192 2 0.417 2.67683 14.713 94.7072
576 192 5 -0.834 1.88482 14.1983 94.3767
577 193 2 0.417 0.961562 7.08918 39.0064
578 193 2 0.417 0.693819 8.46356 38.314
579 193 5 -0.834 0.671381 7.97359 39.1499
580 194 2 0.417 20.5044 10.5761 36.6628
581 194 2 0.417 21.2236 9.52786 35.9845
582 194 5 -0.834 20.5581 9.637 36.679
583 195 2 0.417 13.6128 23.686 66.9294
584 195 2 0.417 14.7916 23.1782 67.7252
585 195 5 -0.834 14.6143 23.7224 66.9465
586 196 2 0.417 12.2044 1.50935 69.6826
587 196 2 0.417 12.5474 24.095 69.385
588 196 5 -0.834 12.3992 0.991699 68.9352
589 197 2 0.417 2.24284 21.6982 48.7369
590 197 2 0.417 0.722882 21.961 49.0506
591 197 5 -0.834 1.52978 22.4133 48.6382
592 198 2 0.417 22.3594 15.4835 59.4438
593 198 2 0.417 23.3514 15.7045 58.4144
594 198 5 -0.834 22.7986 16.1893 58.9885
595 199 2 0.417 23.1807 9.96291 75.78
596 199 2 0.417 24.0305 9.14773 76.7234
597 199 5 -0.834 23.4898 9.03637 75.8961
598 200 2 0.417 22.1902 7.72677 56.8585
599 200 2 0.417 21.3977 8.80614 57.6418
600 200 5 -0.834 21.9899 8.69036 56.8349
601 201 2 0.417 1.00686 1.55997 46.4657
602 201 2 0.417 0.425008 2.84822 46.2295
603 201 5 -0.834 24.24 1.85848 46.0564
604 202 2 0.417 10.5672 23.731 72.2861
605 202 2 0.417 11.5339 0.784517 71.8651
606 202 5 -0.834 11.4893 23.8463 72.0659
607 203 2 0.417 23.4488 8.80717 49.3698
608 203 2 0.417 22.776 7.58023 48.7053
609 203 5 -0.834 23.3736 8.32197 48.5187
610 204 2 0.417 23.1885 18.2665 37.2878
611 204 2 0.417 23.5935 17.7028 36.0533
612 204 5 -0.834 22.7656 18.0078 36.4769
613 205 2 0.417 20.278 4.65019 40.2129
614 205 2 0.417 19.9263 4.69645 41.5639
615 205 5 -0.834 19.5031 4.62957 40.7228
616 206 2 0.417 19.55 10.3708 85.5901
617 206 2 0.417 19.4213 9.37136 84.5826
618 206 5 -0.834 19.9723 9.52457 85.2914
619 207 2 0.417 16.2619 6.83975 89.042
620 207 2 0.417 16.5752 8.13597 89.5906
621 207 5 -0.834 16.9581 7.44907 89.0128
622 208 2 0.417 20.2996 3.62051 48.9592
623 208 2 0.417 19.2021 3.57557 48.0244
624 208 5 -0.834 19.6372 4.26612 48.5869
625 209 2 0.417 23.4969 14.4913 39.5354
626 209 2 0.417 22.013 14.5409 39.0991
627 209 5 -0.834 22.9119 14.1265 38.8436
628 210 2 0.417 18.4946 8.49566 36.1989
629 210 2 0.417 17.3771 7.91074 37.0971
630 210 5 -0.834 17.6158 8.15362 36.1495
631 211 2 0.417 19.3535 4.25712 11.246
632 211 2 0.417 18.4373 4.05422 10.2462
633 211 5 -0.834 18.4557 3.95325 11.1546
634 212 2 0.417 19.4138 3.85301 73.6175
635 212 2 0.417 18.3615 3.09956 72.9818
636 212 5 -0.834 18.4771 3.7773 73.6862
637 213 2 0.417 9.30481 17.1882 42.3923
638 213 2 0.417 7.81114 16.7627 42.1876
639 213 5 -0.834 8.75224 16.5702 41.9476
640 214 2 0.417 16.1674 7.30096 74.8193
641 214 2 0.417 16.5818 7.61625 73.3729
642 214 5 -0.834 15.8119 7.5759 73.9804
643 215 2 0.417 5.81322 6.72966 72.6478
644 215 2 0.417 5.29592 8.12014 72.2777
645 215 5 -0.834 5.70242 7.33105 71.9174
646 216 2 0.417 16.982 3.77509 74.4831
647 216 2 0.417 16.2873 4.72414 75.4772
648 216 5 -0.834 16.1075 3.90821 74.9191
649 217 2 0.417 21.2753 19.3057 60.7868
650 217 2 0.417 20.742 20.5458 60.118
651 217 5 -0.834 21.534 20.223 60.5996
652 218 2 0.417 19.4141 9.80585 62.5662
653 218 2 0.417 18.4789 9.20276 63.667
654 218 5 -0.834 18.8042 9.07813 62.727
655 219 2 0.417 5.4636 7.80233 70.334
656 219 2 0.417 4.96249 9.12294 69.8136
657 219 5 -0.834 5.0029 8.19509 69.5208
658 220 2 0.417 14.1317 17.9174 91.4724
659 220 2 0.417 15.3976 17.2299 91.7842
660 220 5 -0.834 14.8324 17.9338 92.1232
661 221 2 0.417 18.3205 18.4616 51.1297
662 221 2 0.417 17.5262 18.9511 49.9479
663 221 5 -0.834 18.2013 18.3048 50.167
664 222 2 0.417 21.4644 8.79169 86.0718
665 222 2 0.417 22.294 9.27942 87.3807
666 222 5 -0.834 22.1063 8.51322 86.768
667 223 2 0.417 13.0927 18.148 86.0596
668 223 2 0.417 13.3265 19.3213 85.1115
669 223 5 -0.834 12.6575 18.8222 85.5393
670 224 2 0.417 10.8185 2.72034 96.9407
671 224 2 0.417 10.7088 2.61252 95.5136
672 224 5 -0.834 10.4681 2.13213 96.2892
673 225 2 0.417 9.95928 10.0953 87.5829
674 225 2 0.417 8.69562 10.4983 88.2662
675 225 5 -0.834 9.09823 10.4721 87.4065
676 226 2 0.417 0.872728 21.4149 75.9372
677 226 2 0.417 23.9183 22.0815 74.9477
678 226 5 -0.834 0.335924 21.1667 75.1264
679 227 2 0.417 13.5832 10.6359 89.7283
680 227 2 0.417 13.086 9.98109 91.0444
681 227 5 -0.834 12.8015 10.4766 90.2403
682 228 2 0.417 0.866808 11.8272 47.6969
683 228 2 0.417 0.614945 10.4242 47.0978
684 228 5 -0.834 1.05887 11.3038 46.8906
685 229 2 0.417 5.5109 5.47555 53.9349
686 229 2 0.417 4.48277 4.56158 54.2848
687 229 5 -0.834 4.73231 5.14283 53.5077
688 230 2 0.417 17.5704 20.5574 47.8547
689 230 2 0.417 19.0144 21.0305 48.2238
690 230 5 -0.834 18.5121 20.6484 47.4675
691 231 2 0.417 12.9753 12.124 39.4703
692 231 2 0.417 12.0425 13.1278 38.9016
693 231 5 -0.834 12.4791 12.2743 38.609
694 232 2 0.417 17.8665 7.91935 59.8531
695 232 2 0.417 18.4148 7.59423 61.2593
696 232 5 -0.834 18.5926 7.45813 60.2656
697 233 2 0.417 14.0268 1.44066 61.1569
698 233 2 0.417 13.4677 24.2046 60.4136
699 233 5 -0.834 14.1283 0.436733 61.0926
700 234 2 0.417 16.3474 7.05215 92.5168
701 234 2 0.417 14.9705 7.75308 92.3748
702 234 5 -0.834 15.4528 6.95543 92.1202
703 235 2 0.417 2.683 13.5652 66.8152
704 235 2 0.417 3.2014 12.2808 67.3089
705 235 5 -0.834 3.25767 12.8482 66.5049
706 236 2 0.417 5.88485 5.43915 39.0256
707 236 2 0.417 4.37313 5.44878 39.4033
708 236 5 -0.834 5.11515 6.08314 39.0635
709 237 2 0.417 8.05993 17.1647 10.924
710 237 2 0.417 7.44014 18.5973 10.6174
711 237 5 -0.834 7.68737 17.9139 11.3143
712 238 2 0.417 7.90516 23.7428 49.9123
713 238 2 0.417 9.04492 0.383389 50.6257
714 238 5 -0.834 8.86867 23.8171 49.8725
715 239 2 0.417 14.2162 4.09112 69.9412
716 239 2 0.417 14.5437 3.67274 71.2711
717 239 5 -0.834 13.8455 4.18419 70.8181
718 240 2 0.417 11.6196 19.9164 84.8993
719 240 2 0.417 11.2169 21.3354 85.084
720 240 5 -0.834 11.073 20.5827 84.4446
721 241 2 0.417 16.0006 19.0993 45.2394
722 241 2 0.417 17.3618 18.4163 45.7105
723 241 5 -0.834 16.7769 18.5873 44.9037
724 242 2 0.417 21.5552 3.16032 65.3142
725 242 2 0.417 20.5547 2.67652 64.3409
726 242 5 -0.834 21.4592 2.84217 64.3727
727 243 2 0.417 11.6696 15.1088 83.5819
728 243 2 0.417 11.4867 14.7575 82.1122
729 243 5 -0.834 11.8943 14.3667 82.932
730 244 2 0.417 23.3894 13.2157 84.18
731 244 2 0.417 21.8821 13.4821 84.0965
732 244 5 -0.834 22.5388 12.7665 83.9597
733 245 2 0.417 24.2245 10.9715 44.4667
734 245 2 0.417 1.00197 11.8498 45.2453
735 245 5 -0.834 0.752139 11.7997 44.2826
736 246 2 0.417 4.54892 15.6401 85.194
737 246 2 0.417 5.14329 16.6444 86.0001
738 246 5 -0.834 5.18208 16.341 85.0678
739 247 2 0.417 20.2895 17.4589 105.298
740 247 2 0.417 20.1482 18.5133 0.980324
741 247 5 -0.834 19.6773 17.7386 0.592261
742 248 2 0.417 16.099 10.6161 35.1219
743 248 2 0.417 16.5286 9.35119 35.346
744 248 5 -0.834 15.7674 9.75727 34.8891
745 249 2 0.417 21.2874 20.4956 37.8795
746 249 2 0.417 21.4552 21.9804 37.9894
747 249 5 -0.834 21.3592 21.2584 37.357
748 250 2 0.417 12.4305 4.98003 52.6931
749 250 2 0.417 11.8691 6.27337 53.1828
750 250 5 -0.834 11.5467 5.39773 52.8737
751 251 2 0.417 7.78751 0.259823 42.5367
752 251 2 0.417 7.94427 23.2726 41.5287
753 251 5 -0.834 8.52228 23.7625 42.1416