LAMMPS data file via write_data, version 23 Jun 2022, timestep = 5000000

5487 atoms
25 atom types
3120 bonds
4 bond types
2640 angles
4 angle types
720 dihedrals
1 dihedral types

0.249 24.249 xlo xhi
0.2595 24.2595 ylo yhi
0 105.36952658408562 zlo zhi

Masses

1 12.011
2 1.008
3 1.008
4 1.008
5 15.999
6 15.999
7 47.867
8 28.085
9 15.999
10 15.999
11 15.999
12 15.999
13 1.008
14 1.008
15 12.011
16 1.008
17 15.999
18 1.008
19 15.999
20 15.999
21 12.011
22 1.008
23 15.999
24 12.011
25 12.011

Pair Coeffs # lj/cut/coul/long/omp

1 0.066 3.5
2 0.046 0.4
3 0.03 2.5
4 0 0
5 0.1521 3.1507
6 0.17 3.12
7 0.6076 1.958
8 0.044 2.3
9 0.105 3.3
10 0.3321 2.875
11 0.17 3.12
12 0.17 3.12
13 0 0
14 0 0
15 0.066 3.5
16 0.03 2.5
17 0.17 3.12
18 0 0
19 0.17 3.07
20 0.14 2.9
21 0.105 3.75
22 0.015 2.42
23 0.21 2.96
24 0.076 3.55
25 0.07 3.55

Bond Coeffs # harmonic/omp

1 340 1.09
2 320 1.41
3 450 0.9572
4 553 0.945

Angle Coeffs # harmonic/omp

1 55 108.5
2 55 104.52
3 33 107.8
4 35 109.5

Dihedral Coeffs # opls/omp

1 0 0 0.45 0

Atoms # full

2454 818 5 -0.834 2.037251179485562 2.3483343525352773 0.28812900600961694 4 2 1
1456 486 2 0.417 3.2707893263576238 3.112824564859602 1.4303589938103365 6 7 1
1457 486 2 0.417 4.552206336051758 3.9634996362712687 1.7453738101848684 6 7 1
1458 486 5 -0.834 3.808111149655695 3.525633948710309 2.19632184806094 6 7 1
2206 736 2 0.417 3.618787035030901 2.474277470362032 3.696044978752726 1 4 1
330 110 5 -0.834 0.46865049166544387 1.7003526520626613 3.9773824052040587 0 -3 0
2208 736 5 -0.834 3.2318467451234425 2.13856874756013 4.497308872742116 1 4 1
2207 736 2 0.417 3.968515385239638 1.6976793752383292 4.9301856099158705 1 4 1
328 110 2 0.417 0.5517403474980611 0.7274968822372878 3.8005444344453605 0 -3 0
2453 818 2 0.417 1.0924920596074272 2.3431064557481642 0.297415367647642 4 2 1
43 15 2 0.417 2.882023635180446 4.662829921814175 3.382488240056921 5 6 0
4011 189 3 0.04 5.726582644380093 6.161363619369133 1.8204385894007673 1 -2 0
329 110 2 0.417 1.3849321344908687 1.9743779335421927 4.263565165380551 0 -3 0
4013 189 6 -0.6830000000000001 6.242431202568649 4.46717388074424 0.9216653073564055 1 -2 0
3615 123 3 0.04 5.6450235872048085 2.5250589179515317 5.189687867146916 0 1 1
587 196 2 0.417 1.9159230917020174 4.801790063427364 5.640209263036425 -1 -5 1
45 15 5 -0.834 2.7443599042646425 5.201399811666592 4.192459203307417 5 6 0
44 15 2 0.417 2.1772848183904165 5.932148408913597 3.8252899551400272 5 6 0
233 78 2 0.417 4.940388277467958 0.3056645349806701 1.323317088564558 0 -3 1
3617 123 6 -0.6830000000000001 5.589301776303748 0.5038887180433255 5.214035084534426 0 1 1
1872 624 5 -0.834 0.3962196837310615 5.096282129461957 1.7035465036153368 -2 -2 0
234 78 5 -0.834 5.352560584900361 0.568593694597296 0.48031887784315536 0 -3 1
2452 818 2 0.417 2.276540067790566 1.4425467921257853 0.22256892629224054 4 2 1
1870 624 2 0.417 0.41624434165768065 4.179309162928575 1.2531051702401366 -2 -2 0
854 285 2 0.417 6.806820278662747 1.618686849692303 1.081600184713952 11 0 1
855 285 5 -0.834 7.603485226840493 2.0921943570696575 1.4306610191311455 11 0 1
853 285 2 0.417 7.332924835101162 2.9927832079800725 1.3453618045805813 11 0 1
4418 1201 8 1.844911 10.928071000000003 3.064899999999996 0.18273393606899901 0 0 0
5061 1201 9 -0.8896810000000001 10.428740999999999 4.327869999999996 1.0733239360690003 0 0 0
4874 1201 9 -0.964356 11.462081 1.8617699999999946 1.1545239360689994 0 0 0
4968 1201 9 -0.910945 12.137201000000001 6.187780999999995 1.8423439360690013 0 0 0
4498 1201 8 1.845073 10.928131000000002 5.218879999999993 2.3363939360689976 0 0 0
4457 1201 8 1.845151 10.928081 0.8899499999999954 2.3574739360690042 0 0 0
4738 1201 9 -0.925522 9.667031 6.108360999999994 2.8517539360689987 0 0 0
4966 1201 9 -0.9107420000000001 12.137170999999999 0.3537220000000101 2.8514639360690026 0 1 0
4876 1201 9 -0.964436 11.462091 4.246509999999994 3.539203936069 0 0 0
5063 1201 9 -0.889857 10.428741000000002 1.7804399999999987 3.620653936069001 0 0 0
4422 1201 8 1.845636 10.928151000000003 3.04378 4.511143936069001 0 0 0
4780 1201 9 -0.925786 9.666981 3.5586999999999978 5.401063936069001 0 0 0
4931 1201 9 -0.910802 8.658011 6.029200999999996 5.321643936069006 0 0 0
4959 1201 9 -0.911054 12.137181 2.549559999999996 5.480363936069002 0 0 0
3613 123 1 0.145 6.297129334750672 1.6515108448072504 5.493220543861562 0 1 1
4009 189 1 0.145 6.443321971751596 5.368840886093029 1.9877612817097663 1 -2 0
4010 189 3 0.04 6.287608299547513 4.7349176261392945 2.8829642862860543 1 -2 0
4012 189 3 0.04 7.428631750297226 5.743473506890833 1.895630535375993 1 -2 0
3616 123 3 0.04 7.278179025990019 1.753905076745581 4.956011807991073 0 1 1
4014 189 4 0.418 6.53939431208024 4.910310568370513 0.11004395705517485 1 -2 0
4273 233 1 0.145 3.20063545973457 7.173246415019696 1.4620140296866648 0 2 0
4274 233 3 0.04 3.999203668457851 7.871555819439695 1.7323461584110684 0 2 0
4277 233 6 -0.6830000000000001 2.027586741559675 7.447222227072865 2.145927747785174 0 2 0
4278 233 4 0.418 1.4892531667412214 6.679354854515352 1.885611477026458 0 2 0
4401 1201 8 1.845334 3.064849999999996 10.928100999999993 0.1828339360690059 0 0 0
5053 1201 9 -0.889891 4.3277599999999925 10.428601 1.0731939360690035 0 0 0
4850 1201 9 -0.964657 1.8616699999999948 11.462160999999991 1.1544039360689986 0 0 0
4955 1201 9 -0.911341 6.187719999999995 12.136410999999999 1.8415339360690035 0 0 0
4479 1201 8 1.845208 5.218669999999997 10.928100999999995 2.336263936068999 0 0 0
4378 1201 8 1.845832 0.8898299999999963 10.928020999999992 2.3572939360690004 0 0 0
4760 1201 9 -0.92604 6.108250999999998 9.666840999999998 2.851453936069001 0 0 0
4941 1201 9 -0.910583 0.3537120000000087 12.137181000000007 2.851423936069006 1 0 0
4863 1201 9 -0.963475 4.246459999999995 11.461650999999996 3.5390139360690016 0 0 0
5040 1201 9 -0.890578 1.7800099999999879 10.427860999999995 3.619823936069 0 0 0
4397 1201 8 1.847435 3.043249999999995 10.926700999999994 4.509753936069005 0 0 0
4765 1201 9 -0.92717 3.5580799999999946 9.666170999999997 5.400353936069003 0 0 0
4915 1201 9 -0.911428 2.546279999999996 12.133430999999993 5.4781539360690035 0 0 0
4950 1201 9 -0.911308 6.029110999999997 8.657240999999997 5.320984936069005 0 0 0
4275 233 3 0.04 3.0706686895673316 7.146120419053586 0.4035000022472117 0 2 0
4276 233 3 0.04 3.602350093793026 6.264583682272334 1.7407810974718476 0 2 0
3688 135 3 0.04 11.635126211669077 10.316633932849486 0.525057370821566 1 4 1
4725 1201 9 -0.925322 12.216491000000001 8.65815 2.852863936069003 0 0 0
4768 1201 9 -0.926607 8.658850999999999 12.215501 2.8511039360689985 0 0 0
5013 1201 9 -0.8898239999999999 10.436670999999999 10.436071 3.6148939360690084 0 0 0
5027 1201 9 -0.8898509999999999 7.888970999999996 7.888670999999994 3.613353936069002 0 0 0
4345 1201 8 1.846668 11.329771 9.174761 4.116873936069003 0 0 0
4363 1201 8 1.845768 9.152750999999995 6.999109999999997 4.1128439360690034 0 0 0
4392 1201 8 1.845808 6.998509999999995 9.152100999999995 4.112294936069001 0 0 0
4461 1201 8 1.846638 9.173490999999997 11.327971 4.114153936069004 0 0 0
4860 1201 9 -0.965205 7.970170999999995 10.354810999999994 4.646443936069002 0 0 0
4825 1201 9 -0.964966 10.355690999999997 7.970650999999997 4.647213936069002 0 0 0
455 152 2 0.417 2.8994732711739952 2.287598652695837 6.545484514858 -1 -8 1
454 152 2 0.417 2.0038684404331466 3.1985565644340728 7.382028814425929 -1 -8 1
456 152 5 -0.834 2.4542583303279852 2.3364936116264703 7.433337897309913 -1 -8 1
4954 1201 9 -0.910697 6.029010999999999 6.028849999999996 7.950583936069005 0 0 0
4723 1201 9 -0.925737 3.558809999999994 6.108260999999993 8.959814936069007 0 0 0
4767 1201 9 -0.925764 6.108279999999995 3.558709999999994 8.95968493606901 0 0 0
5006 1201 9 -0.889855 4.327949999999997 1.780469999999994 9.721584936069014 0 0 0
5011 1201 9 -0.889661 1.7804799999999972 4.327789999999992 9.72151493606901 0 0 0
4338 1201 8 1.845325 3.064599999999993 0.8904599999999849 10.22055493606901 0 0 0
4343 1201 8 1.845302 3.0436799999999997 5.218579999999993 10.220704936069009 0 0 0
4414 1201 8 1.844973 0.8897099999999956 3.064979999999995 10.22074493606901 0 0 0
4460 1201 8 1.845366 5.2187109999999945 3.044009999999993 10.22083493606901 0 0 0
4818 1201 9 -0.96429 1.8616599999999912 1.8617799999999924 10.75493493606901 0 0 0
4823 1201 9 -0.964211 4.246369999999993 4.246409999999992 10.75490493606901 0 0 0
4706 1201 9 -0.9104910000000001 0.35372200000001186 3.55864 11.43004493606901 1 0 0
4912 1201 9 -0.910803 3.558669999999993 0.35374200000000044 11.42985493606901 0 1 0
4917 1201 9 -0.910836 2.549289999999999 6.187529999999994 11.429714936069011 0 0 0
4961 1201 9 -0.911138 6.187519999999997 2.5494599999999927 11.43004493606901 0 0 0
586 196 2 0.417 1.3993664690377967 5.18764386864599 7.016518155918287 -1 -5 1
588 196 5 -0.834 1.290569061376845 4.5387846974017245 6.357730756306156 -1 -5 1
4084 201 3 0.04 9.080917509363966 1.1811813067288477 6.782078731632725 4 1 0
3614 123 3 0.04 6.38534295937769 1.7120563966956976 6.574912439221296 0 1 1
4086 201 4 0.418 9.162278458749746 1.0319793729812545 9.556485678541522 4 1 0
4419 1201 8 1.845077 9.151951 4.820159999999993 6.290553936069004 0 0 0
4875 1201 9 -0.96457 10.354720999999996 5.3538599999999965 7.262813936069002 0 0 0
5054 1201 9 -0.889827 7.888760999999998 4.320449999999995 7.1813349360690095 0 0 0
4778 1201 9 -0.925673 12.216411000000003 3.558569999999998 7.950644936069008 0 0 0
4404 1201 8 1.844961 6.998389999999997 4.819919999999995 8.44436393606901 0 0 0
4501 1201 8 1.844732 11.327181 4.820320999999997 8.46558393606901 0 0 0
4866 1201 9 -0.963604 7.970020999999996 5.353430999999994 9.64737493606901 0 0 0
5064 1201 9 -0.889914 10.436250999999999 4.320209999999997 9.728424936069011 0 0 0
4423 1201 8 1.846027 9.173260999999997 4.819469999999997 10.618794936069012 0 0 0
5162 1201 9 -0.925949 8.65775 3.558459999999993 11.509114936069007 0 0 0
5343 1201 9 -0.912327 9.668180999999997 6.027540999999994 11.587924936069012 0 0 0
4085 201 6 -0.6830000000000001 9.078493192768427 1.5684292471707872 8.840285986523822 4 1 0
4081 201 1 0.145 8.984691850271568 0.7433542141327226 7.76150828598781 4 1 0
4082 201 3 0.04 7.988694566744608 0.2737943767298064 7.751814781752566 4 1 0
4400 1201 8 1.846601 4.818960999999995 9.149760999999991 6.288533936069001 0 0 0
4865 1201 9 -0.964625 5.3519099999999975 10.351520999999995 7.260283936069003 0 0 0
5052 1201 9 -0.890507 4.320059999999994 7.8879209999999915 7.181294936069003 0 0 0
4721 1201 9 -0.925325 3.557109999999996 12.220910999999994 7.94453493606901 0 0 0
4431 1201 8 1.845183 4.819919999999997 6.997950999999994 8.444024936069013 0 0 0
4476 1201 8 1.840565 4.813669999999997 11.323360999999997 8.458704936069006 0 0 0
4862 1201 9 -0.96261 5.3539499999999975 7.969920999999996 9.647454936069014 0 0 0
5051 1201 9 -0.890612 4.318739999999996 10.435810999999994 9.728193936069008 0 0 0
4396 1201 8 1.843465 4.818899999999995 9.173220999999995 10.617444936069013 0 0 0
5145 1201 9 -0.925303 3.5592399999999955 8.657640999999996 11.509614936069013 0 0 0
5329 1201 9 -0.913891 6.029829999999994 9.667800999999997 11.589894936069008 0 0 0
5469 1201 11 -0.8547005833333677 8.818959999999995 12.137697 11.484217936069008 0 0 0
5288 1201 9 -0.910675 0.3536720000000102 6.187520000000002 14.05884493606901 1 0 0
5307 1201 9 -0.911008 6.187809999999993 0.3538320000000077 14.058864936069016 0 1 0
5284 1201 9 -0.9105569999999999 0.353622000000005 0.353812000000012 15.067984936069015 1 1 0
5336 1201 9 -0.91152 6.187100999999995 6.185549999999992 15.068684936069008 0 0 0
5332 1201 9 -0.911023 3.558439999999993 6.187209999999992 17.697184936069018 0 0 0
5344 1201 9 -0.910683 6.187419999999997 3.5585499999999928 17.696964936069016 0 0 0
5302 1201 9 -0.9107229999999999 2.5495499999999947 0.353842000000002 17.697014936069017 0 1 0
5280 1201 9 -0.911014 0.3536920000000059 2.5495700000000046 17.696814936069018 1 0 0
2922 7 4 0.418 8.903752714116605 0.5491922709392747 11.893561322834419 6 -1 1
3825 158 3 0.04 10.931521202284745 2.0375332096139713 13.537212584833087 1 2 0
2458 820 2 0.417 9.674179803992857 6.181274464515955 16.608088641867003 9 0 0
2460 820 5 -0.834 10.635169705272663 6.211096651116552 16.360781404858397 9 0 0
4611 1201 8 1.845288 7.396679999999996 3.0443299999999933 12.398914936069009 0 0 0
5248 1201 9 -0.964583 6.862609999999995 4.246219999999993 13.37129493606901 0 0 0
5402 1201 9 -0.889908 7.896040999999996 1.7804299999999937 13.28956493606901 0 0 0
5436 1201 9 -0.8902330000000001 7.895929999999999 4.327149999999997 15.837644936069015 0 0 0
4615 1201 8 1.845171 7.396640999999998 3.064979999999995 16.72790493606901 0 0 0
5214 1201 9 -0.964589 6.862600999999995 1.8615099999999902 15.756034936069018 0 0 0
5151 1201 9 -0.925991 8.660420999999994 6.104630999999994 14.063844936069009 0 0 0
4548 1201 8 1.845464 7.396989999999997 0.890809999999993 14.552814936069009 0 0 0
4598 1201 8 1.847951 7.397050999999998 5.217979999999994 14.574554936069008 0 0 0
5163 1201 9 -0.925415 8.657720999999999 2.5493499999999933 17.617615936069015 0 0 0
3828 158 4 0.418 10.947502702822279 2.9985464420857317 16.025314495819824 1 2 0
3827 158 6 -0.6830000000000001 10.362914631351208 2.7407674642951534 15.290388996737754 1 2 0
3823 158 1 0.145 11.327149353893518 2.7877258818248207 14.174680055893274 1 2 0
3824 158 3 0.04 11.260903659331253 3.8311866244660306 13.82936708867785 1 2 0
3964 181 3 0.04 5.806662820359915 9.968715804773797 16.874287083586065 -1 0 0
3961 181 1 0.145 5.695089715868087 10.99890984552961 16.768216857739702 -1 0 0
4258 230 3 0.04 1.2931467906114085 11.427948967022585 13.462915413509231 1 0 1
3962 181 3 0.04 6.086395172653412 11.417553510871812 15.848430297319625 -1 0 0
4260 230 4 0.418 1.7985217998167364 11.417689934947944 15.872435760012179 1 0 1
4255 230 1 0.145 2.198568014183982 11.360061365302137 14.052626361578158 1 0 1
5244 1201 9 -0.96589 4.245059999999991 6.860460999999991 13.370734936069011 0 0 0
5430 1201 9 -0.890192 4.326070999999998 7.895120999999993 15.838714936069016 0 0 0
4259 230 6 -0.6830000000000001 2.1332774184653167 10.713974510958908 15.305973510115326 1 0 1
4619 1201 8 1.846821 5.213750999999996 7.3906909999999915 14.57705493606901 0 0 0
5144 1201 9 -0.9252089999999999 2.549189999999996 8.657900999999994 17.61782493606902 0 0 0
4525 1201 8 1.845226 0.8897099999999938 7.396660999999994 14.55277493606901 0 0 0
5194 1201 9 -0.964738 1.8612499999999965 6.862380999999993 15.755914936069015 0 0 0
4586 1201 8 1.844782 3.063379999999995 7.396170999999995 16.728714936069018 0 0 0
4590 1201 8 1.845646 3.043359999999991 7.396119999999991 12.399084936069013 0 0 0
5382 1201 9 -0.889954 1.7803699999999902 7.896119999999992 13.28974493606901 0 0 0
5138 1201 9 -0.921411 6.097550999999998 8.654010999999999 14.066734936069013 0 0 0
3963 181 3 0.04 4.673400357625002 11.2612693048147 16.717684942987056 -1 0 0
4256 230 3 0.04 2.645711181618132 10.593054597651722 13.449294082956747 1 0 1
1489 497 2 0.417 8.257113093383127 8.479303336422728 17.181242357564603 3 -4 1
5451 1201 9 -0.891439 10.426050999999996 7.887249999999996 13.293334936069014 0 0 0
4701 1201 8 1.845791 9.162740999999997 6.990570999999995 12.79641493606901 0 0 0
2812 938 2 0.417 8.911255284544954 10.472607845484628 16.596079318905414 -7 5 0
5427 1201 9 -0.894918 7.893189999999996 10.363750999999997 13.355364936069012 0 0 0
2814 938 5 -0.834 8.384769453604015 9.861779843181584 16.088404442400133 -7 5 0
2813 938 2 0.417 8.334085854578879 10.339125506766909 15.2537001079315 -7 5 0
2459 820 2 0.417 10.534578334146735 6.525401447922717 15.409441060032975 9 0 0
5237 1201 9 -0.960638 7.900770999999996 7.8938699999999935 12.262674936069008 0 0 0
4629 1201 8 1.843105 11.325480999999998 9.148661 12.798694936069008 0 0 0
5182 1201 9 -0.911975 9.586330999999998 12.129091 14.14781493606901 0 0 0
4696 1201 8 1.795198 9.129960999999998 11.287070999999997 12.821974936069008 0 0 0
4579 1201 8 1.833423 6.984220999999994 9.139320999999999 12.799364936069008 0 0 0
5166 1201 9 -0.927065 12.215561 9.661749999999998 14.059014936069017 0 0 0
5264 1201 9 -0.951095 10.356821 10.350110999999998 12.270414936069013 0 0 0
5366 1201 9 -0.906613 12.135051 12.130980999999998 15.07148493606901 0 0 0
3966 181 4 0.418 7.242196220411387 11.730878039122853 17.655125688777755 -1 0 0
5428 1201 9 -0.889552 1.7803299999999953 1.7804899999999897 19.40534593606901 0 0 0
5460 1201 9 -0.88953 4.32777 4.327749999999994 19.40543593606901 0 0 0
5093 1201 9 -0.925534 2.5494599999999963 6.108250999999993 20.167185936069018 0 0 0
5117 1201 9 -0.925415 6.108240999999995 2.549469999999994 20.167095936069018 0 0 0
4580 1201 8 1.845547 3.043499999999996 0.8902799999999935 18.90620593606902 0 0 0
4673 1201 8 1.845614 3.064569999999998 5.2183399999999915 18.906254936069015 0 0 0
4655 1201 8 1.84513 5.218459999999999 3.0648799999999934 18.906044936069016 0 0 0
4703 1201 8 1.845535 0.8895599999999976 3.043709999999992 18.905974936069015 0 0 0
5238 1201 9 -0.964546 4.246519999999995 1.8617299999999908 18.371984936069016 0 0 0
5275 1201 9 -0.964769 1.8617499999999971 4.24638999999999 18.372034936069017 0 0 0
171 57 5 -0.834 3.7897857821247047 2.318307833556457 21.9305851739621 -1 -6 1
22 8 2 0.417 4.173106434802607 6.108812687901113 22.15035446632162 4 -3 0
170 57 2 0.417 4.25230389063043 2.6310641116694606 22.73489840442572 -1 -6 1
24 8 5 -0.834 4.6176571772422745 5.268158162352042 22.360006089406014 4 -3 0
23 8 2 0.417 5.166505085879394 5.132320807447447 21.592675215566846 4 -3 0
169 57 2 0.417 2.8954526389969835 2.708421725780082 22.09904742017651 -1 -6 1
2239 747 2 0.417 0.7956506939169308 3.3536454779342195 22.69086001028744 -2 4 0
1223 408 2 0.417 4.93591944551586 4.0342710101839785 23.553565810303613 6 -3 0
2241 747 5 -0.834 1.7166308823271943 3.7238026045014596 22.80192351666208 -2 4 0
5257 1201 9 -0.964535 10.354711 0.7544099999999929 21.864015936069016 0 0 0
5171 1201 9 -0.925657 12.216530999999998 2.5495399999999933 21.176335936069012 0 0 0
4551 1201 8 1.844936 6.998250999999999 1.2886399999999902 20.682324936069023 0 0 0
4641 1201 8 1.845518 11.326861 1.2884799999999927 20.661284936069016 0 0 0
5405 1201 9 -0.889545 7.888751 1.7877599999999951 21.945405936069022 0 0 0
5217 1201 9 -0.964469 7.970020999999996 0.754319999999991 19.47928493606902 0 0 0
5443 1201 9 -0.889616 10.436151 1.787749999999992 19.398074936069015 0 0 0
4612 1201 8 1.845132 9.173030999999996 1.2888399999999987 18.507664936069013 0 0 0
2937 10 3 0.04 11.763763807078021 5.9279326440603395 20.771684420762483 4 2 0
2935 10 1 0.145 11.42476437210984 6.079885258858858 19.74215108024667 4 2 0
2936 10 3 0.04 11.550552520653406 5.2262202037012635 19.113588978362987 4 2 0
4616 1201 8 1.845515 9.151931 1.288459999999997 22.83615593606902 0 0 0
1597 533 2 0.417 8.127577563106177 5.69681922725713 23.57485897921094 6 -2 1
1831 611 2 0.417 4.486960831062482 11.222761228264844 20.031394929942916 0 0 1
5379 1201 9 -0.889636 1.7877599999999987 7.888709999999992 21.94538593606903 0 0 0
4522 1201 8 1.844954 1.2883399999999945 6.998060999999989 20.68236593606902 0 0 0
4576 1201 8 1.845602 1.2882899999999893 11.32661099999999 20.661215936069013 0 0 0
5235 1201 9 -0.964527 0.7544099999999928 10.35472099999999 21.864085936069017 0 0 0
5136 1201 9 -0.925888 2.5495099999999926 12.216520999999993 21.176245936069023 0 0 0
5191 1201 9 -0.964402 0.7543399999999973 7.9699709999999895 19.47940593606903 0 0 0
5425 1201 9 -0.889812 1.7877199999999984 10.436120999999991 19.398014936069018 0 0 0
4589 1201 8 1.844608 1.288059999999998 9.172960999999994 18.507524936069018 0 0 0
1833 611 5 -0.834 5.404622712584668 11.164192061389166 20.2224369738818 0 0 1
1832 611 2 0.417 5.781558350776533 11.41509874462078 19.39327669782719 0 0 1
3287 68 6 -0.6830000000000001 5.345803167188678 9.936660943611246 22.65179647628509 0 0 0
3288 68 4 0.418 5.632789566814015 10.24084986146776 21.794479515661703 0 0 0
3670 132 3 0.04 6.238620615179072 6.673338722021691 19.408515033374748 4 -3 0
3668 132 3 0.04 5.370234420916766 7.211099318571435 20.763505857322777 4 -3 0
3667 132 1 0.145 6.205680982714312 7.505340608612729 20.15249552909008 4 -3 0
4585 1201 8 1.845301 1.2883899999999926 9.151750999999994 22.836114936069016 0 0 0
3671 132 6 -0.6830000000000001 6.086768206122806 8.607078637916224 19.340053125164996 4 -3 0
3672 132 4 0.418 5.597608766047777 9.256152188779005 19.849759108325053 4 -3 0
3999 187 3 0.04 9.318278653047711 11.242814756078651 21.889640038686256 -1 3 1
2938 10 3 0.04 12.002594591716749 6.904176749889739 19.34393602191513 4 2 0
1490 497 2 0.417 7.614382963831753 8.27098287112556 18.48256434693708 3 -4 1
2939 10 6 -0.6830000000000001 9.988723753252811 6.358239203761623 19.790787605577414 4 2 0
2940 10 4 0.418 9.659829160251283 6.726615818741718 19.008504299022512 4 2 0
3997 187 1 0.145 9.10152886559209 12.14906442378835 21.42995872907154 -1 3 1
1449 483 5 -0.834 10.551859198361422 9.31720476068969 20.30607414083327 -2 -1 0
1447 483 2 0.417 10.095707097012236 8.551665367813483 19.9451357230942 -2 -1 0
569 190 2 0.417 10.415377392619954 10.31502159702825 18.858714033197824 3 12 1
3284 68 3 0.04 7.13748836555689 8.737614095663965 22.69940446826317 0 0 0
570 190 5 -0.834 9.993813017742546 10.877288199938128 18.209976749838713 3 12 1
3669 132 3 0.04 7.152196248942268 7.478227051925538 20.673982706872767 4 -3 0
1491 497 5 -0.834 8.28901495232442 7.862505343197149 17.90374695449738 3 -4 1
3286 68 3 0.04 7.063234613477377 10.218065295591558 23.574438778305023 0 0 0
3283 68 1 0.145 6.517943978310804 9.350760015716638 23.25562179159309 0 0 0
259 87 2 0.417 9.441906269078393 6.549776038591568 21.300871934665274 7 5 0
261 87 5 -0.834 9.158241857119593 6.642438089169921 22.256044190385204 7 5 0
260 87 2 0.417 9.674169356185145 7.45250085760888 22.51159000816042 7 5 0
3359 80 6 -0.6830000000000001 10.4641983559356 8.849388720098945 23.258506769876657 3 1 0
3358 80 3 0.04 12.057750558505177 7.859622074812991 23.522332723288283 3 1 0
568 190 2 0.417 9.507405187395234 11.46575890068678 18.827159845188227 3 12 1
4001 187 6 -0.6830000000000001 8.544013610553812 11.945410600634318 20.11633917654919 -1 3 1
3965 181 6 -0.6830000000000001 6.329274782879953 11.774065195784525 17.85561742509811 -1 0 0
4002 187 4 0.418 7.619322140656239 11.771746895559954 20.019656010282294 -1 3 1
1448 483 2 0.417 10.587857576999683 9.093127139069042 21.254314773312036 -2 -1 0
4169 215 6 -0.6830000000000001 0.9902476127365142 0.377627768982366 25.931824644713018 9 4 0
1224 408 5 -0.834 5.25076728863964 3.23941387697243 24.06881042877509 6 -3 0
2761 921 2 0.417 5.252025359988054 4.82785056152114 26.047054024123977 1 4 -1
2240 747 2 0.417 1.9171361495184809 3.662197423786639 23.74389970305856 -2 4 0
4166 215 3 0.04 2.0797030730672588 0.6342551613233202 24.17445507465025 9 4 0
3389 85 6 -0.6830000000000001 3.1988776706157678 4.911649417691838 26.518678500858076 1 -4 -1
1222 408 2 0.417 6.11200703515592 3.6015407236584807 24.32192671986338 6 -3 0
2763 921 5 -0.834 6.01373386270896 5.102658458257348 26.57416294894405 1 4 -1
3386 85 3 0.04 1.4959923684831393 5.896022874812021 26.211883591207247 1 -4 -1
3385 85 1 0.145 2.542083453098287 6.115006963231751 26.157156895914415 1 -4 -1
3387 85 3 0.04 2.9171121800671593 6.20518539254183 25.149105625633613 1 -4 -1
3981 184 3 0.04 2.188352210909486 1.021945103857932 29.174623422547015 8 3 0
498 166 5 -0.834 5.864550122125615 5.257965130788017 29.17879488249306 2 0 0
497 166 2 0.417 5.951891303746016 5.223781389063394 28.197707351606763 2 0 0
3390 85 4 0.418 2.98360882296415 4.703176844683149 27.431377100632936 1 -4 -1
3982 184 3 0.04 1.4335417058457693 2.467866206995473 29.19872561686947 8 3 0
2900 4 3 0.04 0.4869615348573333 4.0373507433162015 27.624131834144066 0 7 0
4167 215 3 0.04 0.28274492084493397 0.5926968859620576 24.02863106047393 9 4 0
1133 378 2 0.417 4.645457079469174 0.9619454271670143 25.59475331570324 3 0 0
2762 921 2 0.417 6.693613057212237 5.457062319639861 25.951026982864622 1 4 -1
5340 1201 9 -0.910568 12.137190999999996 3.558659999999992 23.646515936069022 0 0 0
5160 1201 9 -0.925671 9.667010999999999 2.549539999999997 23.72582593606903 0 0 0
4609 1201 8 1.845075 10.928151000000002 3.0647999999999946 24.61573593606903 0 0 0
5254 1201 9 -0.964414 11.462070999999996 1.8617399999999957 25.587555936069037 0 0 0
5348 1201 9 -0.911015 12.137221 6.187539999999999 26.27539593606902 0 0 0
5442 1201 9 -0.889818 10.428730999999997 4.327829999999996 25.50626593606902 0 0 0
870 290 5 -0.834 8.039880047807692 3.0019597495760024 27.400983421431853 13 2 0
868 290 2 0.417 7.177118916211847 3.3885418161522773 27.572180865636305 13 2 0
1598 533 2 0.417 8.7246224383565 4.971994247006587 24.776131588047228 6 -2 1
869 290 2 0.417 7.885849698601872 2.0819456960041745 27.605779866975286 13 2 0
1599 533 5 -0.834 7.868713669337316 5.174666489643547 24.36400959821803 6 -2 1
4689 1201 8 1.845626 10.928101000000002 5.218499999999994 26.76943593606903 0 0 0
4648 1201 8 1.844895 10.928131000000002 0.889899999999999 26.790615936069017 0 0 0
5119 1201 9 -0.925796 9.666971000000002 6.108250999999995 27.28454593606902 0 0 0
5346 1201 9 -0.910323 12.137200999999996 0.3537020000000055 27.28445593606903 0 1 0
5256 1201 9 -0.964493 11.462081 4.246469999999996 27.972285936069035 0 0 0
5444 1201 9 -0.8896500000000001 10.428741000000002 1.7804699999999976 28.053635936069025 0 0 0
4613 1201 8 1.84547 10.928090999999997 3.0436099999999975 28.944365936069026 0 0 0
5327 1201 9 -0.910734 3.558659999999997 12.137170999999995 23.646555936069028 0 0 0
5143 1201 9 -0.925712 2.54952999999999 9.667000999999994 23.72579593606902 0 0 0
4592 1201 8 1.845285 3.064689999999997 10.928000999999995 24.615785936069024 0 0 0
5230 1201 9 -0.964477 1.861739999999994 11.46208099999999 25.58757593606903 0 0 0
5335 1201 9 -0.911176 6.187529999999996 12.137221 26.275385936069032 0 0 0
5433 1201 9 -0.8897699999999999 4.327839999999994 10.428740999999999 25.50625593606901 0 0 0
3388 85 3 0.04 2.9167389585952765 6.985731341492831 26.723159943561964 1 -4 -1
4670 1201 8 1.845728 5.218459999999996 10.928050999999996 26.76947593606903 0 0 0
4569 1201 8 1.844918 0.8897999999999922 10.928070999999994 26.790605936069024 0 0 0
5141 1201 9 -0.925787 6.1082699999999965 9.666970999999997 27.28454593606902 0 0 0
5321 1201 9 -0.910364 0.35372200000000475 12.137221000000004 27.28445593606903 1 0 0
5243 1201 9 -0.964491 4.246469999999996 11.46208099999999 27.972285936069028 0 0 0
5420 1201 9 -0.8896269999999999 1.7804699999999958 10.428740999999993 28.053615936069026 0 0 0
4588 1201 8 1.845314 3.0435699999999972 10.928070999999996 28.944365936069026 0 0 0
436 146 2 0.417 9.378090706106386 11.5412532390801 25.42506271657865 -7 2 1
437 146 2 0.417 10.633508601326513 11.698511915315486 24.565008474913935 -7 2 1
3356 80 3 0.04 11.852511855953315 9.264484397102937 24.63903417006045 3 1 0
3285 68 3 0.04 6.3115784896233675 8.838096504399765 24.19296238973882 0 0 0
3360 80 4 0.418 10.062765063950664 9.577989443642092 23.8042249463594 3 1 0
5106 1201 9 -0.925802 12.216501 8.657770999999997 27.284535936069023 0 0 0
5149 1201 9 -0.92582 8.657801 12.216471 27.284555936069022 0 0 0
5393 1201 9 -0.889794 10.436071 10.436050999999999 28.04628593606902 0 0 0
5407 1201 9 -0.889723 7.888690999999994 7.888690999999993 28.04626593606902 0 0 0
4536 1201 8 1.845302 11.326741 9.172939999999997 28.545685936069027 0 0 0
4554 1201 8 1.845091 9.151800999999997 6.998060999999997 28.545705936069023 0 0 0
4583 1201 8 1.844993 6.998080999999996 9.151760999999997 28.545725936069026 0 0 0
4652 1201 8 1.845227 9.173000999999996 11.326641 28.54573593606903 0 0 0
5205 1201 9 -0.964342 10.354731 7.9700209999999965 29.079625936069018 0 0 0
5240 1201 9 -0.964299 7.969999999999994 10.354750999999997 29.079675936069037 0 0 0
3355 80 1 0.145 11.788698234200483 8.870982116625934 23.62008715674189 3 1 0
438 146 5 -0.834 9.840072352843444 11.095030084902744 24.708533526447116 -7 2 1
2330 777 2 0.417 5.771030851097686 0.35565963085400315 31.586259493704034 2 -10 1
3979 184 1 0.145 1.5437085803432318 1.6290879660680095 29.868726545651196 8 3 0
2286 762 5 -0.834 4.242248800237474 3.904621336281655 30.986532747284 4 -3 0
2285 762 2 0.417 4.952088722603867 3.2044989590280624 31.23577504339136 4 -3 0
2284 762 2 0.417 4.836301805083214 4.312826233554829 30.274147371348825 4 -3 0
3984 184 4 0.418 2.678974469894937 2.7694120749382054 30.982744162898566 8 3 0
3983 184 6 -0.6830000000000001 2.244552122419731 1.9134824185845083 31.078701507095182 8 3 0
3980 184 3 0.04 0.6892102025166211 1.0155030415575548 30.01507778135361 8 3 0
1684 562 2 0.417 2.897254470817416 5.1921584555006435 30.69614631114251 5 2 0
1686 562 5 -0.834 2.7027065852115935 5.8784711599608945 30.01470509150097 5 2 0
5334 1201 9 -0.911116 6.028959999999995 6.0289599999999925 32.38364593606903 0 0 0
5104 1201 9 -0.9258960000000001 3.5587199999999934 6.108240999999992 33.39279693606903 0 0 0
5148 1201 9 -0.925883 6.108240999999995 3.558719999999995 33.39278693606904 0 0 0
5386 1201 9 -0.889853 4.327810999999997 1.7804399999999934 34.15453693606902 0 0 0
5391 1201 9 -0.889848 1.780439999999997 4.327810999999991 34.15453693606902 0 0 0
4529 1201 8 1.845199 3.0647199999999937 0.8898199999999878 34.65396593606903 0 0 0
4534 1201 8 1.845354 3.0435299999999947 5.218439999999991 34.65396593606904 0 0 0
4605 1201 8 1.845173 0.8897999999999938 3.06472999999999 34.65396593606903 0 0 0
4651 1201 8 1.845278 5.218439999999997 3.043529999999997 34.653965936069035 0 0 0
5198 1201 9 -0.9643350000000001 1.8617599999999932 1.8617599999999896 35.18787693606902 0 0 0
5203 1201 9 -0.964381 4.246489999999993 4.2464899999999925 35.187876936069024 0 0 0
496 166 2 0.417 6.684381527219925 5.688017436247809 29.516441119973205 2 0 0
93 31 5 -0.834 6.524281103406195 1.836835548764028 30.745207407555856 9 -3 0
91 31 2 0.417 7.4950423611230095 1.968706184396478 30.79535838703622 9 -3 0