ITEM: TIMESTEP
0
ITEM: NUMBER OF ATOMS
5487
ITEM: BOX BOUNDS pp pp pp
2.4900000000000000e-01 2.4248999999999999e+01
2.5950000000000001e-01 2.4259499999999999e+01
0.0000000000000000e+00 1.0536952658408562e+02
ITEM: ATOMS id mol type q x y z
1 1 2 0.417 16.2838 11.1304 60.5773
2 1 2 0.417 17.2879 11.2379 61.8133
3 1 5 -0.834 17.1638 10.8559 60.9538
4 2 2 0.417 8.31214 9.50516 72.0049
5 2 2 0.417 7.0474 10.0822 71.876
6 2 5 -0.834 7.39016 9.18097 71.9277
7 3 2 0.417 0.809123 19.4133 54.7481
8 3 2 0.417 23.3441 19.5301 54.555
9 3 5 -0.834 24.0351 18.8215 54.6085
10 4 2 0.417 5.52304 13.9178 53.33
11 4 2 0.417 4.96422 15.184 52.7397
12 4 5 -0.834 5.20089 14.3005 52.4812
13 5 2 0.417 17.2497 12.9296 31.6199
14 5 2 0.417 17.3154 12.9313 33.1886
15 5 5 -0.834 17.6946 12.476 32.393
16 6 2 0.417 13.8021 21.6926 80.6892
17 6 2 0.417 13.4975 22.9912 81.389
18 6 5 -0.834 13.7654 22.6537 80.5187
19 7 2 0.417 4.17799 15.2697 43.2715
20 7 2 0.417 3.16296 14.554 42.5208
21 7 5 -0.834 3.8135 14.3634 43.1949
22 8 2 0.417 4.17311 6.10881 22.1504
23 8 2 0.417 5.16651 5.13232 21.5927
24 8 5 -0.834 4.61766 5.26816 22.36
25 9 2 0.417 1.38418 17.91 79.5713
26 9 2 0.417 0.851231 18.1274 80.8959
27 9 5 -0.834 1.08996 18.6745 80.1057
28 10 2 0.417 6.1176 3.8165 61.5423
29 10 2 0.417 6.71809 5.15298 61.7182
30 10 5 -0.834 6.69647 4.50091 60.9945
31 11 2 0.417 7.26668 15.2747 88.865
32 11 2 0.417 8.14723 14.3031 89.2227
33 11 5 -0.834 8.06249 14.9009 88.5139
34 12 2 0.417 4.16086 21.6833 50.6673
35 12 2 0.417 3.19673 22.7397 50.3909
36 12 5 -0.834 3.17496 21.7634 50.6818
37 13 2 0.417 19.7504 3.14101 66.7146
38 13 2 0.417 20.3151 3.11408 68.0363
39 13 5 -0.834 20.4308 3.61896 67.2208
40 14 2 0.417 24.065 23.1234 60.3069
41 14 2 0.417 22.9942 22.3269 61.1573
42 14 5 -0.834 23.6839 22.1949 60.418
43 15 2 0.417 2.88202 4.66283 3.38249
44 15 2 0.417 2.17728 5.93215 3.82529
45 15 5 -0.834 2.74436 5.2014 4.19246
46 16 2 0.417 17.933 6.41811 57.2651
47 16 2 0.417 17.1466 6.87342 58.4823
48 16 5 -0.834 17.3019 6.07455 57.975
49 17 2 0.417 18.9281 11.6162 66.2027
50 17 2 0.417 17.8301 10.66 66.7541
51 17 5 -0.834 17.9145 11.4744 66.187
52 18 2 0.417 17.6498 14.8972 67.0068
53 18 2 0.417 17.561 13.5569 66.4632
54 18 5 -0.834 17.1931 14.4228 66.323
55 19 2 0.417 12.7091 2.64509 51.3541
56 19 2 0.417 14.1472 3.00914 50.9932
57 19 5 -0.834 13.31 2.64957 50.6176
58 20 2 0.417 23.2433 11.1611 94.6242
59 20 2 0.417 23.167 12.3929 93.7593
60 20 5 -0.834 23.1285 11.4232 93.6884
61 21 2 0.417 15.9911 11.7157 50.0991
62 21 2 0.417 16.4886 12.7394 51.1395
63 21 5 -0.834 16.1681 11.8295 51.0813
64 22 2 0.417 7.16133 13.6366 92.482
65 22 2 0.417 7.76288 14.9352 92.3572
66 22 5 -0.834 6.93466 14.5556 92.5397
67 23 2 0.417 7.27875 0.693027 62.9679
68 23 2 0.417 6.02755 1.27772 62.7325
69 23 5 -0.834 6.76385 0.961416 62.2428
70 24 2 0.417 7.05209 8.31798 89.1181
71 24 2 0.417 6.31529 9.6942 89.3051
72 24 5 -0.834 7.05638 9.26319 88.8303
73 25 2 0.417 0.342811 12.2308 91.2507
74 25 2 0.417 23.6021 10.9717 91.6313
75 25 5 -0.834 23.6448 11.6802 90.8907
76 26 2 0.417 0.572859 11.6467 48.3136
77 26 2 0.417 2.12068 11.4393 48.1619
78 26 5 -0.834 1.32281 10.9457 48.3713
79 27 2 0.417 20.2472 22.1136 66.9374
80 27 2 0.417 21.4695 21.8086 66.1128
81 27 5 -0.834 20.5718 22.1735 66.0348
82 28 2 0.417 0.390097 12.55 41.1694
83 28 2 0.417 23.9338 13.437 40.0812
84 28 5 -0.834 0.481863 12.6561 40.1847
85 29 2 0.417 2.54591 4.53169 81.0562
86 29 2 0.417 4.06308 4.57921 81.639
87 29 5 -0.834 3.12333 4.60503 81.8672
88 30 2 0.417 1.44325 7.6193 82.269
89 30 2 0.417 2.72899 7.08785 82.8712
90 30 5 -0.834 2.41195 7.82621 82.351
91 31 2 0.417 7.49504 1.96871 30.7954
92 31 2 0.417 6.42385 1.34994 29.973
93 31 5 -0.834 6.52428 1.83684 30.7452
94 32 2 0.417 6.73248 12.1706 90.2948
95 32 2 0.417 8.0134 12.6522 90.9608
96 32 5 -0.834 7.51711 12.6974 90.0965
97 33 2 0.417 15.4798 21.4116 62.8402
98 33 2 0.417 14.8941 22.5218 63.54
99 33 5 -0.834 15.0458 22.2688 62.6573
100 34 2 0.417 10.6113 19.8539 92.6035
101 34 2 0.417 11.74 20.3351 91.8042
102 34 5 -0.834 11.3045 19.5132 92.0541
103 35 2 0.417 20.8774 12.6763 74.6466
104 35 2 0.417 21.4007 11.2511 74.9083
105 35 5 -0.834 21.5103 12.0165 74.2745
106 36 2 0.417 7.55459 8.6644 67.412
107 36 2 0.417 6.8225 8.37659 66.0498
108 36 5 -0.834 7.62977 8.08628 66.5767
109 37 2 0.417 17.1102 22.9849 59.2285
110 37 2 0.417 18.3821 23.5303 59.8776
111 37 5 -0.834 18.1309 22.9491 59.0971
112 38 2 0.417 1.39391 16.6979 92.3515
113 38 2 0.417 2.44119 16.1481 91.4418
114 38 5 -0.834 2.10834 16.0324 92.3505
115 39 2 0.417 9.11047 9.80493 37.9676
116 39 2 0.417 10.4771 9.44147 38.0928
117 39 5 -0.834 9.83896 9.57382 37.4033
118 40 2 0.417 19.5695 11.8385 3.83671
119 40 2 0.417 18.6636 12.1937 5.00669
120 40 5 -0.834 19.3676 12.5864 4.46359
121 41 2 0.417 19.9504 10.3419 88.1213
122 41 2 0.417 18.5419 10.9212 88.2888
123 41 5 -0.834 19.3629 11.115 87.8464
124 42 2 0.417 1.16482 10.6947 74.9303
125 42 2 0.417 0.586753 10.9684 76.2671
126 42 5 -0.834 0.415043 10.4024 75.5189
127 43 2 0.417 10.9446 24.0182 60.7119
128 43 2 0.417 10.5133 1.30218 61.375
129 43 5 -0.834 10.1789 0.418155 61.1617
130 44 2 0.417 6.18929 20.8666 51.3515
131 44 2 0.417 6.28609 22.173 50.9646
132 44 5 -0.834 5.82687 21.4022 50.7112
133 45 2 0.417 2.14119 23.3134 26.875
134 45 2 0.417 3.6275 23.2018 26.8847
135 45 5 -0.834 2.87153 22.8194 27.3507
136 46 2 0.417 11.2646 21.8299 55.156
137 46 2 0.417 11.6773 20.5137 54.5181
138 46 5 -0.834 11.2104 21.3527 54.3092
139 47 2 0.417 20.8205 16.2357 44.8647
140 47 2 0.417 22.165 16.2639 44.1707
141 47 5 -0.834 21.1961 16.3538 43.9893
142 48 2 0.417 10.3384 10.4458 87.5719
143 48 2 0.417 11.0799 9.87706 88.7219
144 48 5 -0.834 11.0619 9.84325 87.6901
145 49 2 0.417 15.4021 9.54742 81.2337
146 49 2 0.417 14.3931 8.45403 81.3326
147 49 5 -0.834 15.4008 8.56344 81.2925
148 50 2 0.417 5.90401 2.10744 91.0277
149 50 2 0.417 6.14705 1.02366 91.916
150 50 5 -0.834 6.2204 1.9683 91.9478
151 51 2 0.417 24.0633 20.5685 65.5843
152 51 2 0.417 23.238 20.7426 66.7303
153 51 5 -0.834 23.3457 21.1282 65.8743
154 52 2 0.417 12.0098 22.8625 57.2552
155 52 2 0.417 10.5644 22.428 57.2688
156 52 5 -0.834 11.1872 22.8547 56.7197
157 53 2 0.417 22.3882 1.40038 37.8103
158 53 2 0.417 23.329 0.289738 37.4284
159 53 5 -0.834 22.4465 0.766023 37.1132
160 54 2 0.417 20.1243 18.7845 63.8545
161 54 2 0.417 21.2953 19.2879 64.6979
162 54 5 -0.834 20.9635 19.3065 63.7796
163 55 2 0.417 3.40018 15.0428 81.5492
164 55 2 0.417 4.42827 15.5316 80.5409
165 55 5 -0.834 3.52611 15.139 80.5938
166 56 2 0.417 11.4745 18.0141 43.1144
167 56 2 0.417 11.5043 16.503 43.0117
168 56 5 -0.834 11.3678 17.3147 42.4199
169 57 2 0.417 2.89545 2.70842 22.099
170 57 2 0.417 4.2523 2.63106 22.7349
171 57 5 -0.834 3.78979 2.31831 21.9306
172 58 2 0.417 14.9956 23.9286 38.3424
173 58 2 0.417 14.1056 1.00049 37.5493
174 58 5 -0.834 15.0297 0.654944 37.7138
175 59 2 0.417 15.6963 1.56496 60.6412
176 59 2 0.417 15.9824 3.04833 60.2713
177 59 5 -0.834 15.5478 2.4614 60.9793
178 60 2 0.417 23.4066 10.4411 82.0842
179 60 2 0.417 23.2357 9.66282 83.2469
180 60 5 -0.834 23.5451 9.49941 82.2934
181 61 2 0.417 16.4306 1.83969 80.1669
182 61 2 0.417 16.8762 0.892082 81.33
183 61 5 -0.834 16.8818 0.993304 80.371
184 62 2 0.417 21.401 17.1461 46.8769
185 62 2 0.417 21.8435 18.2162 47.7371
186 62 5 -0.834 21.9314 18.0074 46.8416
187 63 2 0.417 9.732 23.5556 30.1027
188 63 2 0.417 8.50917 24.064 29.3293
189 63 5 -0.834 8.94258 24.0947 30.2659
190 64 2 0.417 6.19086 9.5791 49.2039
191 64 2 0.417 7.23171 8.54268 48.5754
192 64 5 -0.834 6.71653 8.7843 49.3509
193 65 2 0.417 16.3173 0.477203 52.2601
194 65 2 0.417 15.0138 1.20993 52.3086
195 65 5 -0.834 15.3008 0.321699 52.3087
196 66 2 0.417 18.5988 20.4411 72.6192
197 66 2 0.417 17.8821 19.0207 72.9046
198 66 5 -0.834 18.4628 19.4964 72.2685
199 67 2 0.417 8.90929 2.01713 48.5582
200 67 2 0.417 8.06985 2.29395 47.2955
201 67 5 -0.834 8.97296 2.11218 47.6465
202 68 2 0.417 13.5435 8.23896 37.472
203 68 2 0.417 13.0108 6.92189 37.0019
204 68 5 -0.834 13.0333 7.86483 36.6795
205 69 2 0.417 21.9693 20.4529 57.8149
206 69 2 0.417 21.1249 19.8311 58.8445
207 69 5 -0.834 21.5992 19.5987 58.0484
208 70 2 0.417 17.0501 2.34517 88.0502
209 70 2 0.417 17.502 3.61502 88.6394
210 70 5 -0.834 17.0276 3.27927 87.8481
211 71 2 0.417 13.7207 23.9235 88.8471
212 71 2 0.417 14.5568 22.8497 88.2672
213 71 5 -0.834 13.882 23.5178 88.0004
214 72 2 0.417 17.8587 1.4955 56.9534
215 72 2 0.417 17.5624 1.52333 55.4895
216 72 5 -0.834 17.6148 2.13717 56.2486
217 73 2 0.417 9.74884 1.80506 78.6496
218 73 2 0.417 8.19311 1.56179 78.4444
219 73 5 -0.834 8.8772 2.20561 78.8721
220 74 2 0.417 0.71664 7.25427 54.4347
221 74 2 0.417 1.05797 7.05712 55.9665
222 74 5 -0.834 0.804668 7.76248 55.3013
223 75 2 0.417 17.0024 20.6154 68.8491
224 75 2 0.417 17.3984 21.7191 68.0061
225 75 5 -0.834 17.2494 20.7516 67.9245
226 76 2 0.417 17.5685 5.37868 66.1604
227 76 2 0.417 17.7053 6.88677 66.7104
228 76 5 -0.834 17.4014 6.31553 65.9108
229 77 2 0.417 5.43863 6.48113 89.5767
230 77 2 0.417 5.4776 6.36252 88.1012
231 77 5 -0.834 4.91486 6.16619 88.7925
232 78 2 0.417 5.97583 23.8507 0.272947
233 78 2 0.417 4.94039 0.305665 1.32332
234 78 5 -0.834 5.35256 0.568594 0.480319
235 79 2 0.417 1.1589 8.2123 51.3388
236 79 2 0.417 0.578396 6.70256 51.2191
237 79 5 -0.834 1.21071 7.26258 51.6916
238 80 2 0.417 10.0321 22.8467 62.8806
239 80 2 0.417 11.0586 22.5749 63.9037
240 80 5 -0.834 10.2337 22.2023 63.5928
241 81 2 0.417 5.09315 9.23304 81.9871
242 81 2 0.417 3.92069 8.4949 81.539
243 81 5 -0.834 4.85795 8.69117 81.2451
244 82 2 0.417 17.1265 18.6305 21.9932
245 82 2 0.417 17.7136 18.5704 23.3486
246 82 5 -0.834 17.3638 17.95 22.6816
247 83 2 0.417 3.57473 1.6766 50.0311
248 83 2 0.417 3.27619 2.62821 51.1045
249 83 5 -0.834 3.39482 2.64353 50.1718
250 84 2 0.417 18.7614 4.45258 90.9074
251 84 2 0.417 19.6086 3.57759 90.0889
252 84 5 -0.834 18.9977 4.284 89.9777
253 85 2 0.417 12.5092 10.6337 85.1365
254 85 2 0.417 12.4769 11.8139 84.094
255 85 5 -0.834 12.1039 10.9119 84.2654
256 86 2 0.417 11.5518 3.66497 47.2382
257 86 2 0.417 10.304 3.0352 46.7927
258 86 5 -0.834 11.1024 3.39546 46.4153
259 87 2 0.417 9.44191 6.54978 21.3009
260 87 2 0.417 9.67417 7.4525 22.5116
261 87 5 -0.834 9.15824 6.64244 22.256
262 88 2 0.417 14.3696 8.30076 61.1289
263 88 2 0.417 14.2576 9.28908 62.2226
264 88 5 -0.834 13.7195 8.9093 61.5248
265 89 2 0.417 0.273377 1.53702 61.2756
266 89 2 0.417 1.31825 1.07282 60.3142
267 89 5 -0.834 0.420479 0.90038 60.5854
268 90 2 0.417 20.02 12.3212 67.7335
269 90 2 0.417 21.165 11.7339 66.9809
270 90 5 -0.834 20.4259 12.317 66.855
271 91 2 0.417 7.22276 9.67863 39.3704
272 91 2 0.417 6.23868 10.6689 38.9416
273 91 5 -0.834 7.06004 10.2444 38.5743
274 92 2 0.417 20.7343 18.1555 70.9696
275 92 2 0.417 19.9508 18.623 72.088
276 92 5 -0.834 20.7156 18.0333 71.9431
277 93 2 0.417 14.2623 6.3716 87.2572
278 93 2 0.417 13.5515 7.21594 88.3275
279 93 5 -0.834 14.1474 7.33817 87.5881
280 94 2 0.417 21.4394 19.8457 68.4396
281 94 2 0.417 22.9014 19.703 68.8043
282 94 5 -0.834 22.3188 19.7436 68.0532
283 95 2 0.417 11.1208 20.1243 59.8726
284 95 2 0.417 9.92284 20.6416 59.2249
285 95 5 -0.834 10.2747 19.7671 59.5437
286 96 2 0.417 18.4262 19.3324 46.418
287 96 2 0.417 17.6161 18.0856 46.181
288 96 5 -0.834 17.5084 19.0837 46.1841
289 97 2 0.417 2.71738 5.94288 37.6533
290 97 2 0.417 2.28714 5.1241 38.8354
291 97 5 -0.834 2.90262 5.85739 38.5982
292 98 2 0.417 3.99588 18.8253 80.9209
293 98 2 0.417 3.6977 20.2488 80.7405
294 98 5 -0.834 4.46865 19.6609 80.9692
295 99 2 0.417 13.0994 19.0345 27.1459
296 99 2 0.417 12.481 18.9121 25.7429
297 99 5 -0.834 13.337 19.0302 26.2171
298 100 2 0.417 0.745862 17.2533 39.035
299 100 2 0.417 23.5771 16.2566 38.7035
300 100 5 -0.834 24.0348 17.0878 38.3788
301 101 2 0.417 16.9371 10.8644 3.31472
302 101 2 0.417 16.1305 9.61705 3.26433
303 101 5 -0.834 16.108 10.5279 2.9155
304 102 2 0.417 21.2398 16.5016 79.4431
305 102 2 0.417 19.9763 16.2222 78.7755
306 102 5 -0.834 20.3037 16.5087 79.6406
307 103 2 0.417 1.1376 18.6315 60.0994
308 103 2 0.417 0.828024 17.8493 58.8561
309 103 5 -0.834 1.27688 17.7668 59.7188
310 104 2 0.417 8.25773 20.8416 33.6617
311 104 2 0.417 9.41339 20.9179 34.6758
312 104 5 -0.834 9.02044 21.3433 33.9195
313 105 2 0.417 20.4677 15.1853 42.7631
314 105 2 0.417 19.4054 14.3591 43.0094
315 105 5 -0.834 20.1328 14.3038 42.408
316 106 2 0.417 20.618 13.7827 55.3946
317 106 2 0.417 20.7059 12.7551 54.3805
318 106 5 -0.834 21.299 13.2864 54.8663
319 107 2 0.417 5.55074 21.2788 65.6361
320 107 2 0.417 6.23758 20.694 64.5647
321 107 5 -0.834 5.56898 20.4245 65.1519
322 108 2 0.417 22.5014 2.26958 66.5558
323 108 2 0.417 23.1237 1.01257 65.9857
324 108 5 -0.834 22.36 1.67684 65.809
325 109 2 0.417 13.4731 15.626 53.7549
326 109 2 0.417 13.8762 17.0594 53.9431
327 109 5 -0.834 13.1971 16.5389 53.4574
328 110 2 0.417 0.55174 0.727497 3.80054
329 110 2 0.417 1.38493 1.97438 4.26357
330 110 5 -0.834 0.46865 1.70035 3.97738
331 111 2 0.417 10.9884 5.45895 91.6923
332 111 2 0.417 12.1053 5.92078 90.8206
333 111 5 -0.834 11.8047 5.152 91.2571
334 112 2 0.417 22.4711 5.74979 39.0918
335 112 2 0.417 22.7316 4.48048 38.3101
336 112 5 -0.834 22.7225 5.46742 38.1811
337 113 2 0.417 16.8624 8.57407 79.7186
338 113 2 0.417 18.2441 8.34387 79.372
339 113 5 -0.834 17.6061 9.08767 79.4238
340 114 2 0.417 14.8819 3.02602 64.8126
341 114 2 0.417 14.063 3.69356 63.7553
342 114 5 -0.834 15.0008 3.54682 64.0077
343 115 2 0.417 19.5897 12.9279 39.8243
344 115 2 0.417 20.5164 13.7327 40.817
345 115 5 -0.834 20.4415 13.4309 39.9066
346 116 2 0.417 3.79745 18.6289 66.6308
347 116 2 0.417 4.54327 18.9649 65.3897
348 116 5 -0.834 3.84776 18.3636 65.7289
349 117 2 0.417 12.1573 20.7243 89.62
350 117 2 0.417 11.0107 20.983 88.7703
351 117 5 -0.834 11.8113 20.4477 88.7734
352 118 2 0.417 2.57535 22.4563 104.967
353 118 2 0.417 1.59763 23.5731 104.764
354 118 5 -0.834 2.11247 23.1662 0.0526219
355 119 2 0.417 2.7025 13.1238 90.8066
356 119 2 0.417 4.02972 12.5949 90.2387
357 119 5 -0.834 3.41899 13.34 90.1911
358 120 2 0.417 8.83491 5.03559 55.2135
359 120 2 0.417 9.76904 3.78873 55.1532
360 120 5 -0.834 9.16592 4.38508 54.582
361 121 2 0.417 11.7164 22.8071 87.2538
362 121 2 0.417 10.8392 23.5811 86.2877
363 121 5 -0.834 10.8082 23.2442 87.2112
364 122 2 0.417 20.8941 23.372 76.9645
365 122 2 0.417 19.9207 0.308148 77.449
366 122 5 -0.834 20.0525 23.7675 76.6495
367 123 2 0.417 19.0618 11.8685 86.2934
368 123 2 0.417 18.7143 13.0864 85.6899
369 123 5 -0.834 19.0803 12.2725 85.4485
370 124 2 0.417 22.4337 4.71621 63.0373
371 124 2 0.417 23.5529 5.50679 63.4336
372 124 5 -0.834 23.0315 5.35452 62.5922
373 125 2 0.417 1.43236 10.3914 79.2027
374 125 2 0.417 1.79276 11.6654 78.5353
375 125 5 -0.834 1.31607 10.8098 78.3291
376 126 2 0.417 11.7747 7.60705 56.418
377 126 2 0.417 12.5799 6.62277 57.2276
378 126 5 -0.834 11.8239 6.66672 56.5635
379 127 2 0.417 22.3309 16.122 61.4396
380 127 2 0.417 22.8259 17.2679 60.5785
381 127 5 -0.834 22.1809 16.5407 60.5291
382 128 2 0.417 18.5422 11.1093 34.2654
383 128 2 0.417 19.0469 9.72123 34.1892
384 128 5 -0.834 18.4287 10.2444 34.689
385 129 2 0.417 13.0243 18.3133 62.6287
386 129 2 0.417 13.8547 18.2818 61.3418
387 129 5 -0.834 13.3298 17.6898 61.9619
388 130 2 0.417 23.3719 6.34545 36.5942
389 130 2 0.417 0.696501 6.11057 35.9725
390 130 5 -0.834 23.9135 6.59244 35.8378
391 131 2 0.417 20.304 17.2683 60.2845
392 131 2 0.417 19.3397 18.4607 60.4861
393 131 5 -0.834 19.3806 17.5285 60.1334
394 132 2 0.417 21.0879 20.0576 54.6441
395 132 2 0.417 20.1302 18.9222 54.751
396 132 5 -0.834 20.3857 19.6465 54.1426
397 133 2 0.417 22.0018 9.92554 35.3922
398 133 2 0.417 22.6739 10.6295 34.326
399 133 5 -0.834 22.4292 10.7957 35.2194
400 134 2 0.417 3.63616 23.4689 66.831
401 134 2 0.417 3.25095 22.3812 67.7265
402 134 5 -0.834 2.95052 22.8148 66.9338
403 135 2 0.417 22.3349 21.7782 88.0853
404 135 2 0.417 20.8554 21.5628 87.8225
405 135 5 -0.834 21.7214 21.5435 87.3596
406 136 2 0.417 20.0821 2.45846 92.688
407 136 2 0.417 19.2905 2.26485 93.9537
408 136 5 -0.834 19.187 2.38587 93.004
409 137 2 0.417 5.92943 6.23701 52.3242
410 137 2 0.417 4.6589 6.44141 53.0656
411 137 5 -0.834 5.62987 6.62897 53.1541
412 138 2 0.417 3.54493 23.1873 70.4608
413 138 2 0.417 2.97803 23.7274 69.168
414 138 5 -0.834 3.11012 22.8698 69.6463
415 139 2 0.417 2.86258 1.30862 48.0749
416 139 2 0.417 1.74074 0.726563 49.0701
417 139 5 -0.834 2.22634 0.510051 48.1883
418 140 2 0.417 20.0006 23.988 65.6508
419 140 2 0.417 20.5758 1.34984 65.598
420 140 5 -0.834 19.7014 0.933469 65.5388
421 141 2 0.417 0.393509 9.79257 49.8678
422 141 2 0.417 0.302056 10.5393 51.2168
423 141 5 -0.834 0.373514 9.62039 50.8125
424 142 2 0.417 10.4275 6.00583 61.2199
425 142 2 0.417 9.79528 5.11052 60.1423
426 142 5 -0.834 10.3511 5.90106 60.2409
427 143 2 0.417 22.5145 15.2674 63.2345
428 143 2 0.417 23.0492 16.1089 64.1848
429 143 5 -0.834 23.1016 16.031 63.2698
430 144 2 0.417 0.353329 4.07016 72.4316
431 144 2 0.417 0.287548 5.36054 73.2184
432 144 5 -0.834 24.0376 4.98994 72.3401
433 145 2 0.417 15.7879 6.44956 54.2344
434 145 2 0.417 15.4451 5.15428 54.8695
435 145 5 -0.834 15.6843 5.47519 53.9909
436 146 2 0.417 9.37809 11.5413 25.4251
437 146 2 0.417 10.6335 11.6985 24.565
438 146 5 -0.834 9.84007 11.095 24.7085
439 147 2 0.417 20.8367 22.6667 42.1653
440 147 2 0.417 20.9367 21.8452 40.8919
441 147 5 -0.834 20.468 21.8589 41.7188
442 148 2 0.417 7.2395 12.579 54.708
443 148 2 0.417 6.44492 11.9758 55.8373
444 148 5 -0.834 6.36877 12.5497 55.0893
445 149 2 0.417 23.05 2.53291 3.48976
446 149 2 0.417 22.6812 2.61231 1.9161
447 149 5 -0.834 22.4425 2.91929 2.85598
448 150 2 0.417 10.2193 4.48885 89.9894
449 150 2 0.417 9.16417 3.61488 90.7359
450 150 5 -0.834 9.63109 3.63141 89.8678
451 151 2 0.417 9.98045 21.931 53.046
452 151 2 0.417 9.02317 21.2934 52.2818
453 151 5 -0.834 9.29246 22.216 52.4461
454 152 2 0.417 2.00387 3.19856 7.38203
455 152 2 0.417 2.89947 2.2876 6.54548
456 152 5 -0.834 2.45426 2.33649 7.43334
457 153 2 0.417 8.30146 8.48824 87.4439
458 153 2 0.417 9.65688 9.01323 87.1285
459 153 5 -0.834 8.98048 8.40409 86.734
460 154 2 0.417 1.63785 23.0839 41.0839
461 154 2 0.417 1.22836 22.593 42.3385
462 154 5 -0.834 1.07101 22.3954 41.3779
463 155 2 0.417 5.07639 16.0003 55.9381
464 155 2 0.417 3.73606 15.9579 56.6134
465 155 5 -0.834 4.17971 15.7739 55.7408
466 156 2 0.417 16.4033 12.9179 48.0189
467 156 2 0.417 15.2527 13.5257 48.6307
468 156 5 -0.834 15.5875 12.6257 48.4474
469 157 2 0.417 21.5859 18.7601 40.6208
470 157 2 0.417 20.5631 18.7806 39.5304
471 157 5 -0.834 21.5024 18.849 39.64
472 158 2 0.417 0.436122 22.5859 75.9301
473 158 2 0.417 22.9897 22.9571 76.2284
474 158 5 -0.834 23.644 22.8785 75.5036
475 159 2 0.417 16.8435 14.7277 74.1899
476 159 2 0.417 17.7271 15.467 73.3846
477 159 5 -0.834 16.9158 15.0174 73.255
478 160 2 0.417 2.97472 9.61259 91.1805
479 160 2 0.417 1.69009 10.1932 90.7036
480 160 5 -0.834 2.62238 10.3481 90.605
481 161 2 0.417 6.11286 15.2199 39.7622
482 161 2 0.417 5.08762 14.0855 39.8403
483 161 5 -0.834 5.61264 14.6338 39.2565
484 162 2 0.417 18.0661 8.77779 58.5883
485 162 2 0.417 19.5387 8.5162 58.3708
486 162 5 -0.834 18.7694 8.9316 57.8927
487 163 2 0.417 5.83118 5.5943 59.9002
488 163 2 0.417 5.84184 6.99491 59.9954
489 163 5 -0.834 5.33644 6.31617 59.4963
490 164 2 0.417 19.7761 16.4793 87.1544
491 164 2 0.417 20.2024 15.1763 86.7984
492 164 5 -0.834 19.9294 15.9889 86.3427
493 165 2 0.417 23.513 4.80346 44.1987
494 165 2 0.417 22.6916 4.43487 43.0022
495 165 5 -0.834 22.6363 4.96265 43.8007
496 166 2 0.417 6.68438 5.68802 29.5164
497 166 2 0.417 5.95189 5.22378 28.1977
498 166 5 -0.834 5.86455 5.25797 29.1788
499 167 2 0.417 18.0449 15.3378 54.7455
500 167 2 0.417 16.7328 14.5588 54.7343
501 167 5 -0.834 17.488 14.7053 54.1394
502 168 2 0.417 10.5497 11.4833 59.7119
503 168 2 0.417 10.3814 10.122 60.1706
504 168 5 -0.834 10.3506 10.6291 59.3492
505 169 2 0.417 3.81351 21.2128 42.4731
506 169 2 0.417 4.34258 19.8754 42.9969
507 169 5 -0.834 3.56561 20.4408 43.0357
508 170 2 0.417 19.3801 6.8294 30.0529
509 170 2 0.417 20.6723 7.06316 30.6754
510 170 5 -0.834 19.7921 7.1194 30.8934
511 171 2 0.417 6.1089 14.7582 90.8836
512 171 2 0.417 4.97147 14.521 89.9898
513 171 5 -0.834 5.72534 15.1017 90.0614
514 172 2 0.417 11.1201 0.858588 84.455
515 172 2 0.417 12.3945 0.538159 85.0273
516 172 5 -0.834 11.6643 24.0533 84.6986
517 173 2 0.417 12.5138 1.89868 33.5079
518 173 2 0.417 13.043 0.451127 33.6418
519 173 5 -0.834 12.7138 1.186 34.2063
520 174 2 0.417 0.73362 12.8428 52.2398
521 174 2 0.417 24.2357 11.7835 53.24
522 174 5 -0.834 24.1115 12.1168 52.3572
523 175 2 0.417 21.9535 5.79053 88.1138
524 175 2 0.417 23.3595 5.25112 88.1857
525 175 5 -0.834 22.8732 5.88274 87.6487
526 176 2 0.417 16.0717 22.5962 93.0003
527 176 2 0.417 16.4379 23.7282 92.2034
528 176 5 -0.834 15.755 23.4808 92.8574
529 177 2 0.417 3.74389 14.0702 88.4215
530 177 2 0.417 2.83415 15.1606 88.163
531 177 5 -0.834 3.69399 14.8083 87.821
532 178 2 0.417 8.93299 5.5574 49.13
533 178 2 0.417 7.77096 6.5903 48.9951
534 178 5 -0.834 8.53419 6.23093 48.5252
535 179 2 0.417 8.90978 10.0183 58.3051
536 179 2 0.417 7.90105 9.07303 57.925
537 179 5 -0.834 8.2595 9.89702 57.6448
538 180 2 0.417 4.18532 21.5014 35.0638
539 180 2 0.417 3.69454 22.5627 35.9896
540 180 5 -0.834 3.39967 21.7135 35.5732
541 181 2 0.417 19.8761 0.573797 79.6597
542 181 2 0.417 18.5766 0.948468 79.6163
543 181 5 -0.834 19.3167 0.928592 78.9809
544 182 2 0.417 14.3033 2.83876 18.7096
545 182 2 0.417 15.556 2.21138 19.3147
546 182 5 -0.834 14.5995 2.25083 19.4488
547 183 2 0.417 16.9587 5.54958 90.2703
548 183 2 0.417 16.5271 6.73571 91.2435
549 183 5 -0.834 16.986 6.53809 90.3509
550 184 2 0.417 6.29763 24.2374 80.8892
551 184 2 0.417 7.73066 0.292614 81.0709
552 184 5 -0.834 7.06189 23.6788 80.7327
553 185 2 0.417 22.9627 22.3716 58.8174
554 185 2 0.417 22.9608 23.4297 57.7782
555 185 5 -0.834 22.6875 22.5049 57.9072
556 186 2 0.417 21.7429 21.4844 38.281
557 186 2 0.417 20.3061 21.4776 37.7809
558 186 5 -0.834 21.2363 21.4912 37.4438
559 187 2 0.417 18.7285 15.9379 46.7028
560 187 2 0.417 17.4823 16.1163 47.5027
561 187 5 -0.834 17.8681 16.4247 46.6936
562 188 2 0.417 19.1571 17.132 74.3004
563 188 2 0.417 19.7448 16.8666 72.827
564 188 5 -0.834 19.1387 16.5269 73.5214
565 189 2 0.417 19.5773 3.1486 54.0271
566 189 2 0.417 18.6386 3.46396 52.8949
567 189 5 -0.834 19.2727 2.79559 53.2416
568 190 2 0.417 9.50741 11.4658 18.8272
569 190 2 0.417 10.4154 10.315 18.8587
570 190 5 -0.834 9.99381 10.8773 18.21
571 191 2 0.417 4.58395 7.08928 37.3417
572 191 2 0.417 4.14843 8.45276 37.6459
573 191 5 -0.834 4.53885 7.99116 36.8826
574 192 2 0.417 12.0548 16.1111 84.0305
575 192 2 0.417 13.0839 17.3116 83.888
576 192 5 -0.834 12.8313 16.5244 84.4972
577 193 2 0.417 2.01285 7.48146 42.7679
578 193 2 0.417 1.10941 6.95979 41.5571
579 193 5 -0.834 1.99415 7.15693 41.8326
580 194 2 0.417 20.9705 4.18628 41.2761
581 194 2 0.417 21.9996 5.39754 41.2287
582 194 5 -0.834 21.7532 4.56666 40.8016
583 195 2 0.417 10.0235 0.404589 45.7478
584 195 2 0.417 11.0325 23.9362 46.6492
585 195 5 -0.834 10.8864 24.0512 45.6859
586 196 2 0.417 1.39937 5.18764 7.01652
587 196 2 0.417 1.91592 4.80179 5.64021
588 196 5 -0.834 1.29057 4.53878 6.35773
589 197 2 0.417 8.10572 10.5476 88.384
590 197 2 0.417 8.72617 11.9312 88.4998
591 197 5 -0.834 8.61865 11.2396 87.8733
592 198 2 0.417 23.8675 12.9073 64.1434
593 198 2 0.417 23.4307 12.6706 62.7769
594 198 5 -0.834 24.2279 12.993 63.2189
595 199 2 0.417 22.7379 4.30252 82.2268
596 199 2 0.417 24.1326 5.07937 82.6614
597 199 5 -0.834 23.7502 4.23634 82.2668
598 200 2 0.417 21.1386 2.65725 82.3139
599 200 2 0.417 20.8089 3.13533 83.682
600 200 5 -0.834 21.0418 3.49092 82.7702
601 201 2 0.417 21.9188 14.2448 39.5332
602 201 2 0.417 22.7219 14.4065 38.2718
603 201 5 -0.834 22.7367 14.6745 39.1832
604 202 2 0.417 17.0709 6.46612 35.1382
605 202 2 0.417 17.6833 7.14371 33.935
606 202 5 -0.834 17.9122 6.81734 34.7944
607 203 2 0.417 20.6601 7.41705 80.7051
608 203 2 0.417 20.5953 7.3024 79.1169
609 203 5 -0.834 20.0505 7.22868 79.9183
610 204 2 0.417 2.83688 16.9881 58.8167
611 204 2 0.417 4.24724 16.8297 59.2457
612 204 5 -0.834 3.67937 16.5477 58.4832
613 205 2 0.417 18.6435 12.7367 51.9729
614 205 2 0.417 18.1227 13.8605 52.8158
615 205 5 -0.834 18.1612 13.61 51.8597
616 206 2 0.417 7.47835 19.6735 12.9203
617 206 2 0.417 6.5398 19.5481 14.2366
618 206 5 -0.834 6.63265 19.2351 13.2783
619 207 2 0.417 18.8721 21.3531 89.5383
620 207 2 0.417 18.7377 22.8471 89.3054
621 207 5 -0.834 19.2591 22.0962 89.0038
622 208 2 0.417 11.2428 5.4174 75.8255
623 208 2 0.417 11.6496 3.98765 75.787
624 208 5 -0.834 12.0426 4.87053 75.8475
625 209 2 0.417 14.635 1.45999 68.3731
626 209 2 0.417 15.7933 1.94911 69.3047
627 209 5 -0.834 15.6171 1.45953 68.4691
628 210 2 0.417 3.32783 12.9081 55.3022
629 210 2 0.417 3.38011 14.248 54.7972
630 210 5 -0.834 3.21786 13.3785 54.4657
631 211 2 0.417 6.69236 23.8253 28.6911
632 211 2 0.417 7.13852 23.8163 27.2867
633 211 5 -0.834 7.33895 24.252 28.1073
634 212 2 0.417 15.4449 3.35127 39.2476
635 212 2 0.417 15.6789 1.86559 38.7485
636 212 5 -0.834 15.4906 2.44552 39.5791
637 213 2 0.417 3.98684 12.7493 79.1833
638 213 2 0.417 3.0738 13.9653 79.1991
639 213 5 -0.834 3.1182 12.9952 78.8573
640 214 2 0.417 12.7992 3.24788 68.5765
641 214 2 0.417 12.4122 1.86846 68.2539
642 214 5 -0.834 13.1561 2.50804 68.0456
643 215 2 0.417 4.67244 11.0005 79.8357
644 215 2 0.417 5.66872 11.5446 80.8599
645 215 5 -0.834 5.29915 11.7288 79.9602
646 216 2 0.417 13.1154 10.9265 46.616
647 216 2 0.417 14.1363 12.0168 47.2483
648 216 5 -0.834 13.8415 11.6268 46.4126
649 217 2 0.417 13.9874 12.9184 86.8043
650 217 2 0.417 14.2487 11.4552 86.8881
651 217 5 -0.834 14.7423 12.2947 86.8969
652 218 2 0.417 21.6786 15.4247 52.2728
653 218 2 0.417 22.2387 16.8227 52.5387
654 218 5 -0.834 21.4126 16.361 52.4112
655 219 2 0.417 22.2057 12.4336 82.8937
656 219 2 0.417 21.6272 11.9255 81.6199
657 219 5 -0.834 22.5161 12.0406 82.0056
658 220 2 0.417 9.93574 13.8591 74.6085
659 220 2 0.417 8.77708 13.2325 75.3734
660 220 5 -0.834 9.26145 14.1116 75.2226
661 221 2 0.417 2.01331 4.21201 76.0612
662 221 2 0.417 3.11446 4.38664 76.9835
663 221 5 -0.834 2.63171 3.66138 76.5661
664 222 2 0.417 17.555 14.0005 91.6331
665 222 2 0.417 18.3416 14.9148 90.9217
666 222 5 -0.834 18.2516 14.6497 91.8203
667 223 2 0.417 7.52055 19.5329 88.6032
668 223 2 0.417 6.15697 18.9795 88.1408
669 223 5 -0.834 6.61565 19.8208 88.4195
670 224 2 0.417 1.79494 2.24861 79.2609
671 224 2 0.417 2.65042 2.63598 78.0523
672 224 5 -0.834 2.45499 1.82223 78.6119
673 225 2 0.417 17.0151 19.523 71.0598
674 225 2 0.417 15.6301 20.1636 71.3035
675 225 5 -0.834 16.2213 19.8957 70.5747
676 226 2 0.417 14.4344 6.62402 93.1659
677 226 2 0.417 14.9095 7.96715 92.6382
678 226 5 -0.834 15.1657 6.97833 92.6524
679 227 2 0.417 8.76754 21.5704 76.3207
680 227 2 0.417 10.2028 21.521 76.1647
681 227 5 -0.834 9.40115 21.9474 75.7412
682 228 2 0.417 11.3489 17.0996 53.2875
683 228 2 0.417 10.228 16.2161 52.9751
684 228 5 -0.834 10.3671 17.1117 53.2621
685 229 2 0.417 10.9776 24.2 48.6966
686 229 2 0.417 10.5288 22.6933 48.762
687 229 5 -0.834 11.044 23.3286 48.2085
688 230 2 0.417 8.67765 0.620148 65.2886
689 230 2 0.417 8.25433 23.3278 64.3847
690 230 5 -0.834 7.98446 24.2213 64.6925
691 231 2 0.417 18.2183 21.7223 51.159
692 231 2 0.417 18.2051 23.2234 50.8568
693 231 5 -0.834 18.1252 22.3675 50.3975
694 232 2 0.417 8.0939 0.917262 75.9224
695 232 2 0.417 8.91343 23.694 75.4136
696 232 5 -0.834 8.95888 0.668297 75.4156
697 233 2 0.417 22.416 0.691278 55.6148
698 233 2 0.417 21.0725 24.2508 55.5307
699 233 5 -0.834 21.7101 0.68618 54.9084
700 234 2 0.417 20.7341 5.49114 84.5417
701 234 2 0.417 21.6631 6.00814 85.571
702 234 5 -0.834 21.4737 6.10556 84.6408
703 235 2 0.417 2.129 11.2301 45.1821
704 235 2 0.417 3.1724 12.2963 45.0372
705 235 5 -0.834 2.22311 12.146 44.8107
706 236 2 0.417 6.55917 18.041 40.3531
707 236 2 0.417 6.95619 16.692 40.7241
708 236 5 -0.834 6.42635 17.1214 40.0449
709 237 2 0.417 4.31402 22.5952 28.768
710 237 2 0.417 4.64225 23.1048 30.0289
711 237 5 -0.834 5.08615 23.0252 29.1681
712 238 2 0.417 23.2889 16.0757 85.6348
713 238 2 0.417 22.0657 16.6934 86.3671
714 238 5 -0.834 23.0737 16.7046 86.3774
715 239 2 0.417 6.69355 12.8585 49.0541
716 239 2 0.417 7.18586 11.7458 49.9075
717 239 5 -0.834 7.2363 12.0814 48.9856
718 240 2 0.417 7.76967 16.7769 84.6312
719 240 2 0.417 7.28992 17.8962 83.9267
720 240 5 -0.834 7.95111 17.196 83.8232
721 241 2 0.417 7.23805 5.4524 42.6004
722 241 2 0.417 6.05031 6.37511 42.3914
723 241 5 -0.834 6.73166 6.15695 43.0212
724 242 2 0.417 13.2126 20.4327 38.9172
725 242 2 0.417 13.9078 21.6816 38.8816
726 242 5 -0.834 13.2766 21.2034 38.3167
727 243 2 0.417 0.789497 3.27004 38.9753
728 243 2 0.417 1.02029 3.44129 37.5364
729 243 5 -0.834 1.56272 3.37192 38.3955
730 244 2 0.417 20.9564 13.1192 84.7824
731 244 2 0.417 22.3165 12.492 85.0249
732 244 5 -0.834 21.789 12.9093 84.338
733 245 2 0.417 2.24593 15.91 94.3023
734 245 2 0.417 3.33856 15.4392 95.117
735 245 5 -0.834 2.41588 15.5992 95.2214
736 246 2 0.417 10.249 4.51602 44.8099
737 246 2 0.417 9.53431 5.50022 43.787
738 246 5 -0.834 9.37191 4.77194 44.3718
739 247 2 0.417 12.0839 18.8858 5.00398
740 247 2 0.417 10.7995 19.129 4.2324
741 247 5 -0.834 11.3814 19.6046 4.89293
742 248 2 0.417 14.811 9.67863 52.6105
743 248 2 0.417 15.8681 10.0492 51.6579
744 248 5 -0.834 15.6176 9.26795 52.2386
745 249 2 0.417 8.48491 21.5464 63.6607
746 249 2 0.417 7.34166 21.8283 62.7779
747 249 5 -0.834 7.56064 21.6894 63.6997
748 250 2 0.417 21.6819 10.3172 88.4095
749 250 2 0.417 22.8075 10.8621 89.1735
750 250 5 -0.834 22.3492 10.9687 88.2917
751 251 2 0.417 10.2987 17.9831 79.1058
752 251 2 0.417 9.51271 18.7166 78.135
753 251 5 -0.834 9.93213 17.8484 78.2298