LAMMPS data file. CGCMM style. atom_style full generated by VMD/TopoTools v1.8 on Thu Jul 18 15:29:48 -0400 2024
5487 atoms
 3120 bonds
 2640 angles
 720 dihedrals
 0 impropers
25 atom types
 4 bond types
 4 angle types
 1 dihedral types
 0 improper types
 0.249000 24.249000  xlo xhi
 0.259500 24.259500  ylo yhi
0.0 225.011999 zlo zhi

Masses

 1 12.011 #        C1
 2  1.008 #        H0
 3  1.008 #        H1
 4  1.008 #        H2
 5 15.999 #        O0
 6 15.999 #        O2
 7 47.867 #        Ti
 8 28.085 #    Si_zeo
 9 15.999 #     O_zeo
10 15.999 #     O_tio
11 15.999 #    O_sioh
12 15.999 #    O_tioh
13  1.008 #    H_sioh
14  1.008 #    H_tioh
15 12.011 #         C
16  1.008 #       H_C
17 15.999 #   O_CH2OH
18  1.008 #      H_OH
19 15.999 #    O_CHOH
20 15.999 #   O_C_O_C
21 12.011 #     C_CHO
22  1.008 #     H_CHO
23 15.999 #     O_CHO
24 12.011 #      C_C=
25 12.011 # C_benzene

Pair Coeffs

 1 0.0600 3.500 #        C1
 2 0.0460 0.400 #        H0
 3 0.0300 2.500 #        H1
 4 0.0000 0.000 #        H2
 5 0.1520 3.151 #        O0
 6 0.1700 3.120 #        O2
 7 0.6076 1.958 #        Ti
 8 0.0440 2.300 #    Si_zeo
 9 0.1050 3.300 #     O_zeo
10 0.3321 2.875 #     O_tio
11 0.1700 3.120 #    O_sioh
12 0.1700 3.120 #    O_tioh
13 0.0000 0.000 #    H_sioh
14 0.0000 0.000 #    H_tioh
15 0.0660 3.500 #         C
16 0.0300 2.500 #       H_C
17 0.1700 3.120 #   O_CH2OH
18 0.0000 0.000 #      H_OH
19 0.1700 3.070 #    O_CHOH
20 0.1400 2.900 #   O_C_O_C
21 0.1050 3.750 #     C_CHO
22 0.0150 2.420 #     H_CHO
23 0.2100 2.960 #     O_CHO
24 0.0760 3.550 #      C_C=
25 0.0700 3.550 # C_benzene

 Bond Coeffs

 1  340.0000     1.0900 # C1-H1
 2  320.0000     1.4100 # C1-O2
 3  450          0.9572 # H0-O0
 4  553.0000     0.9450 # H2-O2

 Angle Coeffs

 1      55.0000   108.5000	# C1-O2-H2
 2      55        104.52     # H0-O0-H0
 3      33.0000   107.8000	# H1-C1-H1
 4      35.0000   109.5000	# H1-C1-O2

 Dihedral Coeffs

 1       0.0000     0.0000     0.4500     0.0000	
 
Atoms # full

   1   1 2  0.417000  1.557000 17.704000 127.962 # H0 HOH
   2   1 2  0.417000  1.897000 16.138000 127.651 # H0 HOH
   3   1 5 -0.834000  1.380000 16.759001 128.237 # O0 HOH
   4   2 2  0.417000  4.357000  3.195000 183.722 # H0 HOH
   5   2 2  0.417000  3.002000  3.989000  184.17 # H0 HOH
   6   2 5 -0.834000  3.604000  3.771000 183.402 # O0 HOH
   7   3 2  0.417000  9.435000 20.055000  121.95 # H0 HOH
   8   3 2  0.417000 10.905000 20.488001 121.386 # H0 HOH
   9   3 5 -0.834000 10.414000 19.856001 121.985 # O0 HOH
  10   4 2  0.417000 13.865000 16.941000 158.317 # H0 HOH
  11   4 2  0.417000 14.719000 17.858999  157.27 # H0 HOH
  12   4 5 -0.834000 14.534000 17.681000 158.236 # O0 HOH
  13   5 2  0.417000 12.198000 23.999001 124.929 # H0 HOH
  14   5 2  0.417000 13.802000 23.997000 125.235 # H0 HOH
  15   5 5 -0.834000 12.977000 23.434000 125.201 # O0 HOH
  16   6 2  0.417000  6.960000 12.578000 148.017 # H0 HOH
  17   6 2  0.417000  7.500000 11.931000 146.618 # H0 HOH
  18   6 5 -0.834000  7.363000 11.766000 147.594 # O0 HOH
  19   7 2  0.417000  3.794000 21.615000 190.456 # H0 HOH
  20   7 2  0.417000  5.425000 21.625000 190.372 # H0 HOH
  21   7 5 -0.834000  4.603000 21.079000 190.211 # O0 HOH
  22   8 2  0.417000  6.686000  7.345000 180.433 # H0 HOH
  23   8 2  0.417000  7.983000  6.436000 180.833 # H0 HOH
  24   8 5 -0.834000  7.679000  7.257000  180.35 # O0 HOH
  25   9 2  0.417000 22.038000 21.934000 119.237 # H0 HOH
  26   9 2  0.417000 22.097000 23.552000 119.025 # H0 HOH
  27   9 5 -0.834000 21.504000 22.778999 119.248 # O0 HOH
  28  10 2  0.417000  8.318000 16.768999 128.622 # H0 HOH
  29  10 2  0.417000  7.775000 18.232000 129.104 # H0 HOH
  30  10 5 -0.834000  7.926000 17.636999 128.316 # O0 HOH
  31  11 2  0.417000 19.604000  3.952000 185.068 # H0 HOH
  32  11 2  0.417000 18.184000  4.759000 185.067 # H0 HOH
  33  11 5 -0.834000 18.608000  3.854000 185.068 # O0 HOH
  34  12 2  0.417000  8.271000 18.018999 196.031 # H0 HOH
  35  12 2  0.417000  8.120000 16.577000  195.28 # H0 HOH
  36  12 5 -0.834000  7.628000 17.304001 195.758 # O0 HOH
  37  13 2  0.417000 16.238001  4.547000 153.642 # H0 HOH
  38  13 2  0.417000 16.381001  2.994000 153.157 # H0 HOH
  39  13 5 -0.834000 16.884001  3.815000 153.426 # O0 HOH
  40  14 2  0.417000 15.891000 17.211000 114.892 # H0 HOH
  41  14 2  0.417000 17.514999 17.229000 115.068 # H0 HOH
  42  14 5 -0.834000 16.735001 16.695999 114.741 # O0 HOH
  43  15 2  0.417000 18.778999 20.377001 176.802 # H0 HOH
  44  15 2  0.417000 19.525999 19.065001 176.179 # H0 HOH
  45  15 5 -0.834000 18.834000 19.767000 176.012 # O0 HOH
  46  16 2  0.417000  8.726000  2.750000 131.979 # H0 HOH
  47  16 2  0.417000  9.166000  2.603000 130.413 # H0 HOH
  48  16 5 -0.834000  8.986000  2.104000  131.26 # O0 HOH
  49  17 2  0.417000 16.870001  5.035000 190.998 # H0 HOH
  50  17 2  0.417000 15.595000  5.971000 190.593 # H0 HOH
  51  17 5 -0.834000 16.582001  5.960000  190.75 # O0 HOH
  52  18 2  0.417000 20.108000 19.603001 169.172 # H0 HOH
  53  18 2  0.417000 19.302000 18.186001 169.069 # H0 HOH
  54  18 5 -0.834000 20.202999 18.607000 169.171 # O0 HOH
  55  19 2  0.417000 23.080000 17.667999 186.151 # H0 HOH
  56  19 2  0.417000 21.573000 18.027000 185.634 # H0 HOH
  57  19 5 -0.834000 22.386000 17.473000 185.457 # O0 HOH
  58  20 2  0.417000  6.816000 23.993000 105.264 # H0 HOH
  59  20 2  0.417000  8.326000 23.634001 104.758 # H0 HOH
  60  20 5 -0.834000  7.352000 23.497999  104.58 # O0 HOH
  61  21 2  0.417000  4.183000 21.302999 196.081 # H0 HOH
  62  21 2  0.417000  5.359000 21.948000  195.15 # H0 HOH
  63  21 5 -0.834000  4.627000 22.153000 195.799 # O0 HOH
  64  22 2  0.417000  3.617000 14.613000 115.196 # H0 HOH
  65  22 2  0.417000  2.557000 13.375000 115.287 # H0 HOH
  66  22 5 -0.834000  3.452000 13.706000 115.583 # O0 HOH
  67  23 2  0.417000 21.694000  0.500000 147.479 # H0 HOH
  68  23 2  0.417000 20.941999  1.634000 146.576 # H0 HOH
  69  23 5 -0.834000 21.228001  1.385000 147.501 # O0 HOH
  70  24 2  0.417000 15.154000  0.501000 174.906 # H0 HOH
  71  24 2  0.417000 15.925000  0.502000 173.466 # H0 HOH
  72  24 5 -0.834000 15.486000  1.075000 174.157 # O0 HOH
  73  25 2  0.417000  7.209000  8.758000 121.719 # H0 HOH
  74  25 2  0.417000  6.102000  9.259000 120.628 # H0 HOH
  75  25 5 -0.834000  6.460000  8.468000 121.123 # O0 HOH
  76  26 2  0.417000  7.159000 14.721000 111.868 # H0 HOH
  77  26 2  0.417000  8.712000 14.865000 111.387 # H0 HOH
  78  26 5 -0.834000  8.093000 14.394000 112.014 # O0 HOH
  79  27 2  0.417000 13.895000 22.038000 142.825 # H0 HOH
  80  27 2  0.417000 14.919000 21.483000  143.97 # H0 HOH
  81  27 5 -0.834000 14.817000 22.118999 143.206 # O0 HOH
  82  28 2  0.417000 15.077000  4.312000 120.789 # H0 HOH
  83  28 2  0.417000 13.730000  5.225000 120.659 # H0 HOH
  84  28 5 -0.834000 14.092000  4.346000 120.964 # O0 HOH
  85  29 2  0.417000 18.612000 16.754000 182.572 # H0 HOH
  86  29 2  0.417000 18.867001 16.632999 180.963 # H0 HOH
  87  29 5 -0.834000 18.464001 17.194000 181.686 # O0 HOH
  88  30 2  0.417000  8.449000 15.201000 122.546 # H0 HOH
  89  30 2  0.417000  8.166000 15.934000 123.978 # H0 HOH
  90  30 5 -0.834000  8.816000 15.837000 123.224 # O0 HOH
  91  31 2  0.417000 20.950001  4.048000 153.419 # H0 HOH
  92  31 2  0.417000 21.329000  2.812000 152.421 # H0 HOH
  93  31 5 -0.834000 20.582001  3.370000 152.782 # O0 HOH
  94  32 2  0.417000  3.707000 10.507000 125.386 # H0 HOH
  95  32 2  0.417000  3.136000 11.954000 125.882 # H0 HOH
  96  32 5 -0.834000  3.937000 11.470000 125.533 # O0 HOH
  97  33 2  0.417000 10.093000 11.804000 196.847 # H0 HOH
  98  33 2  0.417000 10.000000 12.999000 195.738 # H0 HOH
  99  33 5 -0.834000  9.484000 12.461000 196.403 # O0 HOH
 100  34 2  0.417000  2.195000 21.798000 149.341 # H0 HOH
 101  34 2  0.417000  0.928000 20.787001 149.141 # H0 HOH
 102  34 5 -0.834000  1.210000 21.745001 149.179 # O0 HOH
 103  35 2  0.417000 14.667000  9.463000 138.867 # H0 HOH
 104  35 2  0.417000 13.140000  9.095000 139.314 # H0 HOH
 105  35 5 -0.834000 13.778000  9.841000 139.126 # O0 HOH
 106  36 2  0.417000  3.422000  3.747000 196.523 # H0 HOH
 107  36 2  0.417000  2.440000  3.594000 195.227 # H0 HOH
 108  36 5 -0.834000  2.571000  4.060000 196.101 # O0 HOH
 109  37 2  0.417000 16.860001 22.153000 103.924 # H0 HOH
 110  37 2  0.417000 16.941000 22.618000 105.488 # H0 HOH
 111  37 5 -0.834000 16.478001 22.768000 104.614 # O0 HOH
 112  38 2  0.417000 11.982000 21.834999 136.368 # H0 HOH
 113  38 2  0.417000 11.109000 23.108999 135.838 # H0 HOH
 114  38 5 -0.834000 11.846000 22.474001 135.611 # O0 HOH
 115  39 2  0.417000  2.462000 16.500000 192.569 # H0 HOH
 116  39 2  0.417000  1.506000 15.524000 193.463 # H0 HOH
 117  39 5 -0.834000  1.527000 16.339001 192.886 # O0 HOH
 118  40 2  0.417000  4.515000  7.845000 119.533 # H0 HOH
 119  40 2  0.417000  3.239000  6.891000 119.894 # H0 HOH
 120  40 5 -0.834000  4.160000  6.910000 119.506 # O0 HOH
 121  41 2  0.417000 19.695000 19.129000  120.99 # H0 HOH
 122  41 2  0.417000 18.402000 18.716000 120.082 # H0 HOH
 123  41 5 -0.834000 18.886000 18.542000 120.939 # O0 HOH
 124  42 2  0.417000 11.178000 19.729000 101.739 # H0 HOH
 125  42 2  0.417000  9.676000 20.368999 101.679 # H0 HOH
 126  42 5 -0.834000 10.653000 20.575001 101.639 # O0 HOH
 127  43 2  0.417000  4.619000  5.421000 131.136 # H0 HOH
 128  43 2  0.417000  3.639000  6.725000 131.047 # H0 HOH
 129  43 5 -0.834000  4.590000  6.420000  131.09 # O0 HOH
 130  44 2  0.417000 10.599000 18.885000 196.106 # H0 HOH
 131  44 2  0.417000  9.928000 20.374001 196.121 # H0 HOH
 132  44 5 -0.834000  9.901000 19.471001 195.693 # O0 HOH
 133  45 2  0.417000 12.926000  4.228000 187.488 # H0 HOH
 134  45 2  0.417000 11.634000  4.345000 186.497 # H0 HOH
 135  45 5 -0.834000 12.184000  4.824000 187.181 # O0 HOH
 136  46 2  0.417000  9.634000 18.641001 146.614 # H0 HOH
 137  46 2  0.417000 10.187000 20.174999 146.706 # H0 HOH
 138  46 5 -0.834000  9.538000 19.517000 147.087 # O0 HOH
 139  47 2  0.417000 23.075001 11.209000 132.786 # H0 HOH
 140  47 2  0.417000 22.198999  9.915000 132.311 # H0 HOH
 141  47 5 -0.834000 23.115000 10.313000 132.342 # O0 HOH
 142  48 2  0.417000 21.434999  9.660000 154.655 # H0 HOH
 143  48 2  0.417000 20.445999  9.710000 155.953 # H0 HOH
 144  48 5 -0.834000 20.486000  9.586000 154.962 # O0 HOH
 145  49 2  0.417000 22.139000  7.015000 119.286 # H0 HOH
 146  49 2  0.417000 23.698999  7.223000 119.723 # H0 HOH
 147  49 5 -0.834000 22.886000  6.655000 119.846 # O0 HOH
 148  50 2  0.417000 14.695000 14.257000  153.05 # H0 HOH
 149  50 2  0.417000 15.116000 12.928000   153.9 # H0 HOH
 150  50 5 -0.834000 15.459000 13.678000 153.336 # O0 HOH
 151  51 2  0.417000 16.242001 12.444000 196.485 # H0 HOH
 152  51 2  0.417000 16.177999 11.555000 197.853 # H0 HOH
 153  51 5 -0.834000 15.704000 11.778000 197.002 # O0 HOH
 154  52 2  0.417000 17.530001  5.419000 171.782 # H0 HOH
 155  52 2  0.417000 17.679001  5.695000 173.384 # H0 HOH
 156  52 5 -0.834000 18.134001  5.329000 172.573 # O0 HOH
 157  53 2  0.417000  4.034000  1.769000 133.773 # H0 HOH
 158  53 2  0.417000  5.119000  1.013000 132.816 # H0 HOH
 159  53 5 -0.834000  4.215000  0.946000 133.236 # O0 HOH
 160  54 2  0.417000  2.274000 17.669001 118.038 # H0 HOH
 161  54 2  0.417000  2.510000 18.570999 119.379 # H0 HOH
 162  54 5 -0.834000  2.887000 17.841000  118.81 # O0 HOH
 163  55 2  0.417000 13.899000 15.265000 181.489 # H0 HOH
 164  55 2  0.417000 14.535000 15.606000 180.024 # H0 HOH
 165  55 5 -0.834000 13.838000 15.866000 180.692 # O0 HOH
 166  56 2  0.417000 16.034000  2.294000 150.286 # H0 HOH
 167  56 2  0.417000 15.850000  1.250000 151.529 # H0 HOH
 168  56 5 -0.834000 15.381000  1.905000 150.937 # O0 HOH
 169  57 2  0.417000  8.364000 22.047001 113.619 # H0 HOH
 170  57 2  0.417000  9.091000 23.504999 113.507 # H0 HOH
 171  57 5 -0.834000  8.241000 23.033001 113.738 # O0 HOH
 172  58 2  0.417000 19.934000 11.110000 116.606 # H0 HOH
 173  58 2  0.417000 18.556999 11.822000  117.12 # H0 HOH
 174  58 5 -0.834000 19.086000 10.974000 117.118 # O0 HOH
 175  59 2  0.417000 18.827999  9.034000 172.119 # H0 HOH
 176  59 2  0.417000 17.736000  7.864000 172.444 # H0 HOH
 177  59 5 -0.834000 18.186001  8.682000   172.8 # O0 HOH
 178  60 2  0.417000  8.972000 18.134001 107.745 # H0 HOH
 179  60 2  0.417000 10.246000 17.400000 107.034 # H0 HOH
 180  60 5 -0.834000  9.249000 17.419001 107.103 # O0 HOH
 181  61 2  0.417000  8.561000 16.046000 135.337 # H0 HOH
 182  61 2  0.417000  7.211000 16.945999 135.527 # H0 HOH
 183  61 5 -0.834000  7.561000 16.039000 135.298 # O0 HOH
 184  62 2  0.417000 20.757000 11.173000 131.214 # H0 HOH
 185  62 2  0.417000 19.290001 11.836000 130.938 # H0 HOH
 186  62 5 -0.834000 20.271000 11.928000 130.773 # O0 HOH
 187  63 2  0.417000  2.209000  1.900000 180.823 # H0 HOH
 188  63 2  0.417000  3.366000  3.049000 180.741 # H0 HOH
 189  63 5 -0.834000  2.448000  2.838000 181.075 # O0 HOH
 190  64 2  0.417000  1.543000  7.600000 106.713 # H0 HOH
 191  64 2  0.417000  2.728000  6.584000 106.234 # H0 HOH
 192  64 5 -0.834000  2.482000  7.543000 106.373 # O0 HOH
 193  65 2  0.417000  9.891000  9.571000 195.268 # H0 HOH
 194  65 2  0.417000  9.244000 10.688000 194.268 # H0 HOH
 195  65 5 -0.834000  9.439000 10.463000 195.222 # O0 HOH
 196  66 2  0.417000 11.188000  3.543000 117.311 # H0 HOH
 197  66 2  0.417000  9.932000  4.524000 117.665 # H0 HOH
 198  66 5 -0.834000 10.341000  3.628000 117.835 # O0 HOH
 199  67 2  0.417000  5.795000  0.681000 137.806 # H0 HOH
 200  67 2  0.417000  4.356000  1.317000 137.367 # H0 HOH
 201  67 5 -0.834000  4.821000  0.491000 137.686 # O0 HOH
 202  68 2  0.417000  5.148000  6.020000 175.919 # H0 HOH
 203  68 2  0.417000  3.716000  5.665000 175.218 # H0 HOH
 204  68 5 -0.834000  4.317000  5.468000 175.992 # O0 HOH
 205  69 2  0.417000  8.139000 15.412000 114.164 # H0 HOH
 206  69 2  0.417000  7.715000 16.979000 113.984 # H0 HOH
 207  69 5 -0.834000  8.043000 16.162001  113.51 # O0 HOH
 208  70 2  0.417000 19.730000 11.301000 152.876 # H0 HOH
 209  70 2  0.417000 19.702000 12.295000 151.581 # H0 HOH
 210  70 5 -0.834000 20.243000 11.990000 152.364 # O0 HOH
 211  71 2  0.417000 10.746000  2.219000  138.65 # H0 HOH
 212  71 2  0.417000 10.020000  3.031000 137.433 # H0 HOH
 213  71 5 -0.834000  9.932000  2.266000  138.07 # O0 HOH
 214  72 2  0.417000  3.463000 19.754999 142.301 # H0 HOH
 215  72 2  0.417000  1.843000 19.549000 142.322 # H0 HOH
 216  72 5 -0.834000  2.725000 19.080000 142.302 # O0 HOH
 217  73 2  0.417000 17.903000 23.176001 160.673 # H0 HOH
 218  73 2  0.417000 19.264000 23.966999 161.107 # H0 HOH
 219  73 5 -0.834000 18.840000 23.068001 161.005 # O0 HOH
 220  74 2  0.417000 10.205000 14.217000 121.598 # H0 HOH
 221  74 2  0.417000 10.896000 15.545000  122.25 # H0 HOH
 222  74 5 -0.834000 10.667000 15.081000 121.395 # O0 HOH
 223  75 2  0.417000  6.158000 18.073999 188.323 # H0 HOH
 224  75 2  0.417000  7.500000 18.316999 189.222 # H0 HOH
 225  75 5 -0.834000  7.139000 18.268999 188.292 # O0 HOH
 226  76 2  0.417000  6.417000 13.992000 123.012 # H0 HOH
 227  76 2  0.417000  5.906000 15.177000 124.013 # H0 HOH
 228  76 5 -0.834000  5.678000 14.288000 123.618 # O0 HOH
 229  77 2  0.417000 12.728000  5.893000 155.086 # H0 HOH
 230  77 2  0.417000 13.053000  7.199000  156.01 # H0 HOH
 231  77 5 -0.834000 12.402000  6.461000 155.842 # O0 HOH
 232  78 2  0.417000 11.328000 13.382000 125.506 # H0 HOH
 233  78 2  0.417000 12.048000 13.223000 126.963 # H0 HOH
 234  78 5 -0.834000 12.201000 13.249000 125.976 # O0 HOH
 235  79 2  0.417000  5.984000 17.240999 138.007 # H0 HOH
 236  79 2  0.417000  4.711000 16.285000 137.642 # H0 HOH
 237  79 5 -0.834000  5.529000 16.728001 137.278 # O0 HOH
 238  80 2  0.417000 15.514000 17.614000 141.647 # H0 HOH
 239  80 2  0.417000 13.894000 17.414000 141.707 # H0 HOH
 240  80 5 -0.834000 14.689000 17.458000 141.103 # O0 HOH
 241  81 2  0.417000  7.508000 19.955000 113.496 # H0 HOH
 242  81 2  0.417000  9.053000 19.684999 113.951 # H0 HOH
 243  81 5 -0.834000  8.396000 19.601000 113.202 # O0 HOH
 244  82 2  0.417000  5.851000 10.213000 146.461 # H0 HOH
 245  82 2  0.417000  5.041000 11.625000 146.599 # H0 HOH
 246  82 5 -0.834000  4.946000 10.640000 146.458 # O0 HOH
 247  83 2  0.417000  7.887000  7.998000 101.352 # H0 HOH
 248  83 2  0.417000  6.680000  8.081000 102.449 # H0 HOH
 249  83 5 -0.834000  7.669000  8.146000 102.317 # O0 HOH
 250  84 2  0.417000 15.358000  3.453000  168.51 # H0 HOH
 251  84 2  0.417000 13.973000  3.833000 169.288 # H0 HOH
 252  84 5 -0.834000 14.893000  4.149000 169.057 # O0 HOH
 253  85 2  0.417000  0.994000  2.587000 184.301 # H0 HOH
 254  85 2  0.417000  1.295000  3.359000 182.893 # H0 HOH
 255  85 5 -0.834000  1.259000  2.467000 183.344 # O0 HOH
 256  86 2  0.417000 16.412001  9.089000 164.283 # H0 HOH
 257  86 2  0.417000 17.389999  9.230000 162.983 # H0 HOH
 258  86 5 -0.834000 16.596001  9.616000 163.453 # O0 HOH
 259  87 2  0.417000  4.603000  7.182000 157.337 # H0 HOH
 260  87 2  0.417000  4.522000  7.701000 155.791 # H0 HOH
 261  87 5 -0.834000  4.360000  6.927000 156.401 # O0 HOH
 262  88 2  0.417000 11.240000 16.919001  153.29 # H0 HOH
 263  88 2  0.417000 10.532000 16.346001 154.646 # H0 HOH
 264  88 5 -0.834000 11.005000 17.127001  154.24 # O0 HOH
 265  89 2  0.417000 19.421000 21.240000 165.755 # H0 HOH
 266  89 2  0.417000 19.547001 22.722000 166.429 # H0 HOH
 267  89 5 -0.834000 19.023001 21.871000 166.421 # O0 HOH
 268  90 2  0.417000 18.594000  4.752000 179.394 # H0 HOH
 269  90 2  0.417000 17.403999  4.109000 178.479 # H0 HOH
 270  90 5 -0.834000 17.983999  4.911000 178.618 # O0 HOH
 271  91 2  0.417000 15.016000 20.263000 162.415 # H0 HOH
 272  91 2  0.417000 16.559999 20.646000 162.781 # H0 HOH
 273  91 5 -0.834000 15.931000 20.412001  162.04 # O0 HOH
 274  92 2  0.417000 10.827000 22.319000 163.468 # H0 HOH
 275  92 2  0.417000 10.576000 23.247999 164.787 # H0 HOH
 276  92 5 -0.834000 10.134000 22.691999 164.085 # O0 HOH
 277  93 2  0.417000 19.983000 11.685000 140.411 # H0 HOH
 278  93 2  0.417000 21.157000 12.751000   140.8 # H0 HOH
 279  93 5 -0.834000 20.228001 12.448000 141.009 # O0 HOH
 280  94 2  0.417000 17.910000 12.993000 119.412 # H0 HOH
 281  94 2  0.417000 17.634001 14.441000 120.115 # H0 HOH
 282  94 5 -0.834000 17.884001 13.981000 119.263 # O0 HOH
 283  95 2  0.417000  6.039000 20.289000 188.662 # H0 HOH
 284  95 2  0.417000  5.322000 20.559999  187.22 # H0 HOH
 285  95 5 -0.834000  5.191000 20.191000 188.139 # O0 HOH
 286  96 2  0.417000 22.914000 22.957001 121.644 # H0 HOH
 287  96 2  0.417000 23.997000 21.735001 121.635 # H0 HOH
 288  96 5 -0.834000 23.879999 22.721001  121.75 # O0 HOH
 289  97 2  0.417000 12.306000  1.732000 126.981 # H0 HOH
 290  97 2  0.417000 13.315000  2.857000 126.361 # H0 HOH
 291  97 5 -0.834000 13.236000  2.101000  127.01 # O0 HOH
 292  98 2  0.417000  9.214000  5.604000 149.329 # H0 HOH
 293  98 2  0.417000  9.787000  4.076000 149.276 # H0 HOH
 294  98 5 -0.834000  9.260000  4.767000 148.783 # O0 HOH
 295  99 2  0.417000 22.657000  5.242000  155.93 # H0 HOH
 296  99 2  0.417000 22.822001  4.350000 154.572 # H0 HOH
 297  99 5 -0.834000 22.754000  5.278000 154.935 # O0 HOH
 298 100 2  0.417000  6.845000 10.856000   100.0 # H0 HOH
 299 100 2  0.417000  8.437000 10.928000 100.357 # H0 HOH
 300 100 5 -0.834000  7.629000 11.466000 100.118 # O0 HOH
 301 101 2  0.417000 12.757000  6.093000 167.584 # H0 HOH
 302 101 2  0.417000 12.241000  6.417000 169.098 # H0 HOH
 303 101 5 -0.834000 12.381000  5.696000 168.421 # O0 HOH
 304 102 2  0.417000 14.742000 12.193000 187.429 # H0 HOH
 305 102 2  0.417000 15.241000 10.759000 186.826 # H0 HOH
 306 102 5 -0.834000 15.262000 11.750000 186.698 # O0 HOH
 307 103 2  0.417000 11.914000  1.431000 184.782 # H0 HOH
 308 103 2  0.417000 12.207000  1.899000 186.319 # H0 HOH
 309 103 5 -0.834000 12.613000  1.761000 185.417 # O0 HOH
 310 104 2  0.417000 11.287000  1.807000  177.86 # H0 HOH
 311 104 2  0.417000 11.803000  0.498000 178.689 # H0 HOH
 312 104 5 -0.834000 11.573000  0.851000 177.783 # O0 HOH
 313 105 2  0.417000 13.170000  3.237000  163.04 # H0 HOH
 314 105 2  0.417000 12.643000  3.197000 164.585 # H0 HOH
 315 105 5 -0.834000 13.174000  3.717000 163.918 # O0 HOH
 316 106 2  0.417000  8.960000 24.003000 135.488 # H0 HOH
 317 106 2  0.417000  8.926000 23.334999 133.998 # H0 HOH
 318 106 5 -0.834000  8.425000 23.906000 134.648 # O0 HOH
 319 107 2  0.417000  6.727000 14.467000 104.131 # H0 HOH
 320 107 2  0.417000  8.036000 14.974000 104.965 # H0 HOH
 321 107 5 -0.834000  7.219000 14.400000 104.999 # O0 HOH
 322 108 2  0.417000  1.708000  8.439000 122.271 # H0 HOH
 323 108 2  0.417000  1.964000  9.700000 123.277 # H0 HOH
 324 108 5 -0.834000  1.861000  9.426000 122.321 # O0 HOH
 325 109 2  0.417000 13.453000  8.846000  135.06 # H0 HOH
 326 109 2  0.417000 14.921000  9.334000 134.538 # H0 HOH
 327 109 5 -0.834000 14.031000  9.641000 134.874 # O0 HOH
 328 110 2  0.417000  7.112000 16.802000 103.661 # H0 HOH
 329 110 2  0.417000  5.699000 17.480000 104.121 # H0 HOH
 330 110 5 -0.834000  6.529000 17.611000  103.58 # O0 HOH
 331 111 2  0.417000 17.879999 13.655000 137.615 # H0 HOH
 332 111 2  0.417000 17.287001 14.183000 136.188 # H0 HOH
 333 111 5 -0.834000 18.052999 13.720000 136.632 # O0 HOH
 334 112 2  0.417000 20.514999 14.554000 145.866 # H0 HOH
 335 112 2  0.417000 22.069000 14.990000 146.115 # H0 HOH
 336 112 5 -0.834000 21.372000 14.303000 146.316 # O0 HOH
 337 113 2  0.417000  0.508000 13.132000 155.427 # H0 HOH
 338 113 2  0.417000  1.745000 13.705000 154.527 # H0 HOH
 339 113 5 -0.834000  0.934000 13.121000 154.522 # O0 HOH
 340 114 2  0.417000 14.869000 24.000999 148.135 # H0 HOH
 341 114 2  0.417000 15.197000 23.037001 149.412 # H0 HOH
 342 114 5 -0.834000 15.585000 23.687000 148.759 # O0 HOH
 343 115 2  0.417000  7.726000 19.705000 191.016 # H0 HOH
 344 115 2  0.417000  7.426000 20.472000 192.427 # H0 HOH
 345 115 5 -0.834000  7.795000 20.576000 191.504 # O0 HOH
 346 116 2  0.417000 22.285999 11.385000 122.613 # H0 HOH
 347 116 2  0.417000 23.426001 10.221000 122.732 # H0 HOH
 348 116 5 -0.834000 23.268000 11.207000 122.677 # O0 HOH
 349 117 2  0.417000 23.768000 19.469999 177.695 # H0 HOH
 350 117 2  0.417000 22.889999 19.343000 179.067 # H0 HOH
 351 117 5 -0.834000 23.684000 19.778999 178.643 # O0 HOH
 352 118 2  0.417000  1.357000 12.645000 127.743 # H0 HOH
 353 118 2  0.417000  1.027000 11.046000 127.781 # H0 HOH
 354 118 5 -0.834000  1.724000 11.730000  127.57 # O0 HOH
 355 119 2  0.417000  2.726000 16.405001 176.332 # H0 HOH
 356 119 2  0.417000  2.155000 17.924000 176.517 # H0 HOH
 357 119 5 -0.834000  2.120000 17.101999 175.949 # O0 HOH
 358 120 2  0.417000 20.792000 19.056999 152.625 # H0 HOH
 359 120 2  0.417000 19.825001 20.091999 153.437 # H0 HOH
 360 120 5 -0.834000 20.705999 19.621000 153.446 # O0 HOH
 361 121 2  0.417000 22.061001 22.534000 142.566 # H0 HOH
 362 121 2  0.417000 22.259001 22.754999  140.96 # H0 HOH
 363 121 5 -0.834000 21.945000 22.118000 141.663 # O0 HOH
 364 122 2  0.417000 17.231001 15.349000 162.988 # H0 HOH
 365 122 2  0.417000 16.978001 13.840000 162.415 # H0 HOH
 366 122 5 -0.834000 17.575001 14.641000  162.37 # O0 HOH
 367 123 2  0.417000 13.354000  6.762000 140.961 # H0 HOH
 368 123 2  0.417000 14.589000  7.829000 141.009 # H0 HOH
 369 123 5 -0.834000 13.595000  7.730000 141.031 # O0 HOH
 370 124 2  0.417000  7.759000  9.918000 191.398 # H0 HOH
 371 124 2  0.417000  7.505000  9.385000  192.92 # H0 HOH
 372 124 5 -0.834000  7.256000 10.080000 192.247 # O0 HOH
 373 125 2  0.417000  5.010000 15.175000 162.027 # H0 HOH
 374 125 2  0.417000  4.062000 14.394000 160.951 # H0 HOH
 375 125 5 -0.834000  4.140000 14.697000   161.9 # O0 HOH
 376 126 2  0.417000  0.905000 13.740000 129.593 # H0 HOH
 377 126 2  0.417000  0.670000 13.093000 131.074 # H0 HOH
 378 126 5 -0.834000  0.493000 12.980000 130.097 # O0 HOH
 379 127 2  0.417000 16.857000 14.095000 122.783 # H0 HOH
 380 127 2  0.417000 18.400999 13.793000  123.22 # H0 HOH
 381 127 5 -0.834000 17.450001 13.792000 123.529 # O0 HOH
 382 128 2  0.417000 15.225000 11.594000 134.336 # H0 HOH
 383 128 2  0.417000 14.008000 12.633000 134.009 # H0 HOH
 384 128 5 -0.834000 14.756000 12.101000 133.613 # O0 HOH
 385 129 2  0.417000 13.065000 21.157000 110.345 # H0 HOH
 386 129 2  0.417000 12.271000 21.355000 108.932 # H0 HOH
 387 129 5 -0.834000 12.183000 21.061001 109.883 # O0 HOH
 388 130 2  0.417000  8.777000 15.926000 168.248 # H0 HOH
 389 130 2  0.417000 10.051000 14.910000 168.145 # H0 HOH
 390 130 5 -0.834000  9.738000 15.844000 167.983 # O0 HOH
 391 131 2  0.417000  7.132000  8.712000 142.257 # H0 HOH
 392 131 2  0.417000  6.971000  7.289000 141.471 # H0 HOH
 393 131 5 -0.834000  6.849000  7.757000 142.346 # O0 HOH
 394 132 2  0.417000 14.488000 22.792000 198.398 # H0 HOH
 395 132 2  0.417000 13.778000 21.927000 199.588 # H0 HOH
 396 132 5 -0.834000 14.199000 21.878000 198.683 # O0 HOH
 397 133 2  0.417000 17.725000 14.074000  109.95 # H0 HOH
 398 133 2  0.417000 17.629999 13.049000 108.682 # H0 HOH
 399 133 5 -0.834000 17.108000 13.513000 109.397 # O0 HOH
 400 134 2  0.417000  3.380000  5.621000 104.131 # H0 HOH
 401 134 2  0.417000  3.937000  7.125000 104.444 # H0 HOH
 402 134 5 -0.834000  4.198000  6.196000 104.184 # O0 HOH
 403 135 2  0.417000  8.590000 12.451000 190.453 # H0 HOH
 404 135 2  0.417000  8.564000 13.888000 189.678 # H0 HOH
 405 135 5 -0.834000  8.008000 13.207000 190.153 # O0 HOH
 406 136 2  0.417000 18.825001 19.830000 124.422 # H0 HOH
 407 136 2  0.417000 17.350000 20.160000 125.041 # H0 HOH
 408 136 5 -0.834000 18.322001 20.070000 125.253 # O0 HOH
 409 137 2  0.417000 16.170000 15.273000  116.94 # H0 HOH
 410 137 2  0.417000 15.788000 15.231000 118.527 # H0 HOH
 411 137 5 -0.834000 16.534000 15.168000 117.866 # O0 HOH
 412 138 2  0.417000  4.630000 13.645000 199.474 # H0 HOH
 413 138 2  0.417000  3.438000 14.728000 199.745 # H0 HOH
 414 138 5 -0.834000  4.360000 14.446000 200.009 # O0 HOH
 415 139 2  0.417000  6.666000 11.102000 117.668 # H0 HOH
 416 139 2  0.417000  5.047000 10.973000 117.839 # H0 HOH
 417 139 5 -0.834000  5.780000 11.351000 117.275 # O0 HOH
 418 140 2  0.417000  2.873000 10.479000 115.653 # H0 HOH
 419 140 2  0.417000  1.786000  9.262000 115.589 # H0 HOH
 420 140 5 -0.834000  2.759000  9.485000 115.626 # O0 HOH
 421 141 2  0.417000  6.688000 23.302999 120.178 # H0 HOH
 422 141 2  0.417000  8.278000 23.677000 120.184 # H0 HOH
 423 141 5 -0.834000  7.365000 23.997000 119.931 # O0 HOH
 424 142 2  0.417000  9.554000  5.652000 191.759 # H0 HOH
 425 142 2  0.417000 10.095000  4.112000 191.705 # H0 HOH
 426 142 5 -0.834000  9.426000  4.755000 191.335 # O0 HOH
 427 143 2  0.417000 12.512000 19.973000 152.147 # H0 HOH
 428 143 2  0.417000 11.574000 21.309000 152.194 # H0 HOH
 429 143 5 -0.834000 11.606000 20.327999  152.38 # O0 HOH
 430 144 2  0.417000 17.589001 16.187000 196.964 # H0 HOH
 431 144 2  0.417000 17.295000 17.240000 198.177 # H0 HOH
 432 144 5 -0.834000 16.886999 16.739000 197.415 # O0 HOH
 433 145 2  0.417000 22.017000 13.869000 124.018 # H0 HOH
 434 145 2  0.417000 23.636000 13.993000 123.845 # H0 HOH
 435 145 5 -0.834000 22.879000 13.362000 124.011 # O0 HOH
 436 146 2  0.417000 18.021000  1.972000 117.224 # H0 HOH
 437 146 2  0.417000 18.950001  0.652000 117.469 # H0 HOH
 438 146 5 -0.834000 18.952999  1.610000 117.184 # O0 HOH
 439 147 2  0.417000  1.835000 10.890000 102.619 # H0 HOH
 440 147 2  0.417000  1.588000  9.329000 102.205 # H0 HOH
 441 147 5 -0.834000  1.141000 10.197000  102.42 # O0 HOH
 442 148 2  0.417000 22.334000  4.976000 196.968 # H0 HOH
 443 148 2  0.417000 21.493000  4.546000   198.3 # H0 HOH
 444 148 5 -0.834000 22.190001  4.254000 197.646 # O0 HOH
 445 149 2  0.417000 23.990999  0.867000 164.645 # H0 HOH
 446 149 2  0.417000 23.375999  2.147000 165.451 # H0 HOH
 447 149 5 -0.834000 24.000000  1.368000 165.511 # O0 HOH
 448 150 2  0.417000 10.394000 21.799000 187.613 # H0 HOH
 449 150 2  0.417000 11.949000 21.341999 187.408 # H0 HOH
 450 150 5 -0.834000 11.006000 21.018999 187.479 # O0 HOH
 451 151 2  0.417000  0.587000  8.801000 197.787 # H0 HOH
 452 151 2  0.417000  0.870000  7.701000  198.96 # H0 HOH
 453 151 5 -0.834000  1.293000  8.370000  198.35 # O0 HOH
 454 152 2  0.417000 19.419001  3.738000 158.551 # H0 HOH
 455 152 2  0.417000 18.259001  2.590000 158.493 # H0 HOH
 456 152 5 -0.834000 18.596001  3.385000 158.996 # O0 HOH
 457 153 2  0.417000 14.467000 12.514000 136.193 # H0 HOH
 458 153 2  0.417000 14.637000 14.024000 135.593 # H0 HOH
 459 153 5 -0.834000 15.122000 13.189000 135.852 # O0 HOH
 460 154 2  0.417000  6.147000  2.284000 118.382 # H0 HOH
 461 154 2  0.417000  5.720000  0.727000 118.628 # H0 HOH
 462 154 5 -0.834000  5.635000  1.509000 118.011 # O0 HOH
 463 155 2  0.417000 14.928000 10.209000 121.642 # H0 HOH
 464 155 2  0.417000 15.000000  8.578000 121.638 # H0 HOH
 465 155 5 -0.834000 15.537000  9.418000 121.702 # O0 HOH
 466 156 2  0.417000 21.379000 19.825001 160.813 # H0 HOH
 467 156 2  0.417000 22.986000 20.030001  160.61 # H0 HOH
 468 156 5 -0.834000 22.120001 20.496000 160.786 # O0 HOH
 469 157 2  0.417000 12.693000 23.886999 158.534 # H0 HOH
 470 157 2  0.417000 12.450000 22.273001 158.574 # H0 HOH
 471 157 5 -0.834000 12.001000 23.166000 158.567 # O0 HOH
 472 158 2  0.417000 22.757000  3.883000 162.766 # H0 HOH
 473 158 2  0.417000 21.237000  4.085000 162.203 # H0 HOH
 474 158 5 -0.834000 22.160000  4.467000 162.215 # O0 HOH
 475 159 2  0.417000 15.204000 22.370001 138.724 # H0 HOH
 476 159 2  0.417000 13.835000 23.172001  139.11 # H0 HOH
 477 159 5 -0.834000 14.623000 23.152000 138.497 # O0 HOH
 478 160 2  0.417000  9.610000 13.781000 187.054 # H0 HOH
 479 160 2  0.417000  8.713000 12.828000 186.078 # H0 HOH
 480 160 5 -0.834000  9.510000 12.859000 186.679 # O0 HOH
 481 161 2  0.417000 11.438000  3.390000 152.589 # H0 HOH
 482 161 2  0.417000 12.985000  3.870000 152.382 # H0 HOH