ITEM: TIMESTEP
2000000
ITEM: NUMBER OF ATOMS
5487
ITEM: BOX BOUNDS pp pp pp
2.4900000000000000e-01 2.4248999999999999e+01
2.5950000000000001e-01 2.4259499999999999e+01
0.0000000000000000e+00 1.0536952658408562e+02
ITEM: ATOMS id mol type q x y z
1 1 2 0.417 19.5944 21.2981 87.6675
2 1 2 0.417 18.6497 21.7428 88.877
3 1 5 -0.834 19.3244 22.1139 88.1808
4 2 2 0.417 10.246 19.6395 64.6757
5 2 2 0.417 11.6391 19.9427 64.1279
6 2 5 -0.834 10.7329 19.982 63.9071
7 3 2 0.417 21.774 5.09168 89.1868
8 3 2 0.417 22.1071 3.66413 88.7431
9 3 5 -0.834 22.2136 4.57804 88.4701
10 4 2 0.417 19.1378 12.9614 55.235
11 4 2 0.417 20.5297 12.8182 54.7389
12 4 5 -0.834 20.0389 13.3838 55.3114
13 5 2 0.417 16.1785 6.20948 37.4401
14 5 2 0.417 15.388 5.77334 38.6281
15 5 5 -0.834 15.2558 6.1729 37.6952
16 6 2 0.417 13.4667 15.5725 66.2595
17 6 2 0.417 12.4568 16.1264 65.248
18 6 5 -0.834 13.2693 15.5836 65.3075
19 7 2 0.417 10.2652 9.29873 62.546
20 7 2 0.417 9.0179 10.1016 62.4719
21 7 5 -0.834 9.9792 10.2006 62.579
22 8 2 0.417 18.2109 17.8701 24.1015
23 8 2 0.417 17.9947 18.2381 22.6405
24 8 5 -0.834 17.6181 18.4225 23.501
25 9 2 0.417 6.22917 2.61633 90.9091
26 9 2 0.417 5.09114 3.52018 91.5304
27 9 5 -0.834 6.04693 3.16581 91.7003
28 10 2 0.417 10.1181 14.0936 65.621
29 10 2 0.417 8.84751 14.4525 66.3105
30 10 5 -0.834 9.49951 14.856 65.7693
31 11 2 0.417 17.2134 16.5848 46.1782
32 11 2 0.417 15.8146 17.2026 46.062
33 11 5 -0.834 16.3998 16.646 45.5587
34 12 2 0.417 19.4345 6.28685 83.8355
35 12 2 0.417 19.5303 7.12031 82.5986
36 12 5 -0.834 20.0438 6.94298 83.3767
37 13 2 0.417 3.74542 10.8453 67.4814
38 13 2 0.417 2.41817 10.6967 68.1256
39 13 5 -0.834 2.8444 10.5835 67.2311
40 14 2 0.417 2.72021 16.146 79.2934
41 14 2 0.417 3.67596 17.0125 80.0292
42 14 5 -0.834 3.12093 16.3023 80.163
43 15 2 0.417 7.77222 18.6197 8.06022
44 15 2 0.417 8.28085 17.4999 8.90558
45 15 5 -0.834 7.50008 18.0781 8.81893
46 16 2 0.417 6.77654 11.09 72.6048
47 16 2 0.417 7.46294 11.9416 73.7443
48 16 5 -0.834 7.36042 10.9682 73.3693
49 17 2 0.417 22.9753 20.7589 61.8003
50 17 2 0.417 21.7509 20.1324 62.2558
51 17 5 -0.834 22.0217 20.7931 61.6147
52 18 2 0.417 3.96245 15.7832 77.4581
53 18 2 0.417 3.98433 14.5726 76.4852
54 18 5 -0.834 4.54059 15.0764 77.1466
55 19 2 0.417 9.27981 3.23947 65.0046
56 19 2 0.417 8.76451 4.74627 64.9214
57 19 5 -0.834 8.45608 3.8546 65.011
58 20 2 0.417 0.706814 5.67771 89.441
59 20 2 0.417 23.4412 5.67679 90.3282
60 20 5 -0.834 0.394675 5.40934 90.358
61 21 2 0.417 6.9397 18.5857 55.6611
62 21 2 0.417 7.3563 19.3463 54.4006
63 21 5 -0.834 6.61192 18.8404 54.7119
64 22 2 0.417 14.5209 13.7922 70.4632
65 22 2 0.417 13.0341 13.6201 70.0465
66 22 5 -0.834 13.9402 13.4541 69.7555
67 23 2 0.417 8.35638 6.33252 60.0618
68 23 2 0.417 9.63808 6.11126 59.2929
69 23 5 -0.834 8.81399 6.67379 59.2753
70 24 2 0.417 17.0124 0.298257 36.1586
71 24 2 0.417 17.2901 23.7304 37.5972
72 24 5 -0.834 16.9228 23.4575 36.7432
73 25 2 0.417 16.8809 4.25289 63.6807
74 25 2 0.417 18.1705 4.81461 63.2361
75 25 5 -0.834 17.7373 3.94154 63.2693
76 26 2 0.417 10.6616 6.20698 37.1384
77 26 2 0.417 11.6797 5.89454 36.0415
78 26 5 -0.834 10.6972 6.07175 36.1495
79 27 2 0.417 1.42901 10.0925 46.6301
80 27 2 0.417 0.257023 10.9533 46.4977
81 27 5 -0.834 1.11974 10.9568 46.9702
82 28 2 0.417 7.81685 23.0753 36.6263
83 28 2 0.417 8.97469 22.1406 36.7192
84 28 5 -0.834 8.73654 23.0581 36.8572
85 29 2 0.417 21.6245 17.2222 61.3055
86 29 2 0.417 21.6083 17.5087 62.7643
87 29 5 -0.834 21.3355 16.7933 62.1128
88 30 2 0.417 2.91684 18.6477 75.0553
89 30 2 0.417 1.44809 18.1938 75.0649
90 30 5 -0.834 2.30634 18.0438 74.574
91 31 2 0.417 12.051 17.2368 1.77279
92 31 2 0.417 12.2379 16.1768 0.597592
93 31 5 -0.834 11.6637 16.4308 1.36439
94 32 2 0.417 7.90052 13.7333 83.283
95 32 2 0.417 8.36396 13.41 84.6712
96 32 5 -0.834 7.78303 13.9895 84.1591
97 33 2 0.417 0.884386 15.5908 42.0132
98 33 2 0.417 0.659153 14.2564 42.3107
99 33 5 -0.834 0.549223 14.8719 41.5323
100 34 2 0.417 11.6492 13.4187 47.7992
101 34 2 0.417 11.188 13.8057 46.4352
102 34 5 -0.834 11.2278 13.0798 47.0274
103 35 2 0.417 2.25955 15.7786 62.643
104 35 2 0.417 2.87726 15.0355 63.8553
105 35 5 -0.834 2.93439 15.0641 62.8802
106 36 2 0.417 14.5154 6.06958 68.5442
107 36 2 0.417 15.0421 7.36541 69.0067
108 36 5 -0.834 14.7243 6.94681 68.1577
109 37 2 0.417 13.7663 13.3764 81.6912
110 37 2 0.417 14.9868 13.8567 82.373
111 37 5 -0.834 14.1426 14.1631 82.0467
112 38 2 0.417 23.2565 13.5641 72.0924
113 38 2 0.417 0.658359 13.7957 71.815
114 38 5 -0.834 23.9886 13.0844 71.7265
115 39 2 0.417 2.58551 6.79867 38.8425
116 39 2 0.417 2.14305 7.85806 39.7717
117 39 5 -0.834 2.41585 7.76564 38.8515
118 40 2 0.417 2.1447 15.688 19.4142
119 40 2 0.417 2.2344 14.513 18.6245
120 40 5 -0.834 2.45269 14.7787 19.507
121 41 2 0.417 19.4951 3.22514 94.4139
122 41 2 0.417 20.2901 4.51777 94.4824
123 41 5 -0.834 19.8509 3.89044 95.0472
124 42 2 0.417 5.68458 18.0442 59.3166
125 42 2 0.417 4.84573 19.2736 58.962
126 42 5 -0.834 5.73323 19.0031 59.2735
127 43 2 0.417 12.5028 9.48104 52.6056
128 43 2 0.417 13.4553 9.24333 51.5284
129 43 5 -0.834 13.4425 9.12411 52.4932
130 44 2 0.417 4.82375 2.46872 23.1091
131 44 2 0.417 3.43756 2.9669 22.7733
132 44 5 -0.834 3.95384 2.15466 22.8452
133 45 2 0.417 5.69512 19.9879 14.1369
134 45 2 0.417 5.67313 19.3677 12.8011
135 45 5 -0.834 5.14505 19.4317 13.5289
136 46 2 0.417 6.75919 17.6552 37.1445
137 46 2 0.417 6.37683 17.7286 38.6376
138 46 5 -0.834 6.74102 17.1034 37.9547
139 47 2 0.417 3.30567 5.82488 80.6538
140 47 2 0.417 3.77381 4.76078 79.6538
141 47 5 -0.834 2.99299 5.02698 80.1548
142 48 2 0.417 13.4999 8.6525 82.862
143 48 2 0.417 12.5012 9.69764 83.1632
144 48 5 -0.834 13.1524 9.49535 82.4616
145 49 2 0.417 14.9905 12.3129 69.011
146 49 2 0.417 16.0703 12.3648 68.0919
147 49 5 -0.834 15.7745 11.8424 68.8276
148 50 2 0.417 10.1334 19.0964 53.8352
149 50 2 0.417 10.4173 17.6133 53.7453
150 50 5 -0.834 9.71575 18.2848 53.881
151 51 2 0.417 20.9967 2.01319 57.0751
152 51 2 0.417 21.781 3.00935 57.8686
153 51 5 -0.834 21.72 2.64244 56.9554
154 52 2 0.417 10.4108 18.8208 87.6166
155 52 2 0.417 9.39808 18.4941 86.6881
156 52 5 -0.834 9.9968 17.9944 87.313
157 53 2 0.417 22.2263 1.5918 24.783
158 53 2 0.417 23.7542 1.58831 24.4997
159 53 5 -0.834 23.0594 1.77254 25.1673
160 54 2 0.417 17.6346 2.5829 68.6376
161 54 2 0.417 18.5622 3.07217 69.7061
162 54 5 -0.834 17.6952 3.31091 69.3423
163 55 2 0.417 22.7582 3.67351 35.5487
164 55 2 0.417 21.4704 4.15943 35.2426
165 55 5 -0.834 21.8207 3.32654 35.5319
166 56 2 0.417 9.59907 2.4439 68.1783
167 56 2 0.417 10.0729 1.18044 67.4538
168 56 5 -0.834 9.25435 1.59204 67.7606
169 57 2 0.417 9.06001 16.5343 35.0107
170 57 2 0.417 10.2917 16.1824 35.6627
171 57 5 -0.834 9.35917 15.7892 35.5015
172 58 2 0.417 7.98453 13.4093 42.0655
173 58 2 0.417 6.98378 12.6353 41.3189
174 58 5 -0.834 7.96261 12.6351 41.3784
175 59 2 0.417 6.61506 18.301 46.7756
176 59 2 0.417 5.29071 18.53 46.2574
177 59 5 -0.834 6.13152 18.1348 45.9898
178 60 2 0.417 18.9733 0.87729 88.5554
179 60 2 0.417 19.2925 23.6447 87.7134
180 60 5 -0.834 19.1073 0.68015 87.6154
181 61 2 0.417 6.70775 12.0619 56.6906
182 61 2 0.417 7.72703 12.2441 57.8813
183 61 5 -0.834 7.53442 12.5476 56.965
184 62 2 0.417 2.57655 11.6095 65.8219
185 62 2 0.417 1.63618 12.2279 64.8838
186 62 5 -0.834 2.57913 12.1627 65.0093
187 63 2 0.417 9.70268 18.1798 41.618
188 63 2 0.417 8.75627 19.1746 42.2577
189 63 5 -0.834 9.02667 18.7956 41.3898
190 64 2 0.417 23.0738 14.8708 37.5797
191 64 2 0.417 23.8194 13.5302 37.4228
192 64 5 -0.834 23.7636 14.4325 36.9936
193 65 2 0.417 21.0512 15.7557 63.8895
194 65 2 0.417 21.9005 15.1652 64.9085
195 65 5 -0.834 20.8958 15.2113 64.706
196 66 2 0.417 18.8562 21.6934 42.2478
197 66 2 0.417 20.3115 21.9154 42.5095
198 66 5 -0.834 19.6078 22.1481 41.8779
199 67 2 0.417 7.76082 4.31948 54.0869
200 67 2 0.417 8.69142 3.21777 53.8309
201 67 5 -0.834 8.68466 4.20791 53.7066
202 68 2 0.417 19.4291 9.2523 71.4945
203 68 2 0.417 20.6847 10.1407 71.6361
204 68 5 -0.834 20.1587 9.52399 72.1856
205 69 2 0.417 18.5486 18.7371 20.4467
206 69 2 0.417 17.8934 17.4233 20.4488
207 69 5 -0.834 18.5655 17.8774 20.9064
208 70 2 0.417 5.15453 10.2844 68.6884
209 70 2 0.417 6.10031 11.3138 68.4521
210 70 5 -0.834 5.28461 11.0478 68.0483
211 71 2 0.417 7.39477 2.26439 50.0278
212 71 2 0.417 8.73965 1.7909 50.7277
213 71 5 -0.834 8.387 2.49595 50.1473
214 72 2 0.417 0.271304 17.3752 79.3106
215 72 2 0.417 23.5886 18.5198 79.8781
216 72 5 -0.834 24.0803 18.2625 79.0302
217 73 2 0.417 10.6597 1.77301 87.3474
218 73 2 0.417 9.54678 1.94248 88.2428
219 73 5 -0.834 9.71898 2.11533 87.3327
220 74 2 0.417 14.6644 13.4238 77.5074
221 74 2 0.417 15.4297 12.2295 77.3072
222 74 5 -0.834 14.6285 12.5834 76.9775
223 75 2 0.417 14.0966 6.98154 84.5855
224 75 2 0.417 12.9724 6.44107 83.6868
225 75 5 -0.834 13.6837 7.13587 83.6834
226 76 2 0.417 7.82701 11.9067 37.1551
227 76 2 0.417 7.02464 13.1602 36.9258
228 76 5 -0.834 7.82803 12.6739 36.5775
229 77 2 0.417 23.3691 9.59064 59.7693
230 77 2 0.417 22.4489 8.89453 58.9588
231 77 5 -0.834 23.0324 9.653 58.8574
232 78 2 0.417 14.16 4.9547 98.2627
233 78 2 0.417 14.4173 3.81902 99.2057
234 78 5 -0.834 13.9538 4.69839 99.1875
235 79 2 0.417 1.64293 1.01655 46.5822
236 79 2 0.417 2.38349 1.3769 45.3463
237 79 5 -0.834 2.50301 0.830656 46.1377
238 80 2 0.417 0.665878 16.9846 83.9658
239 80 2 0.417 0.249811 16.8904 85.3811
240 80 5 -0.834 24.0804 17.3803 84.5894
241 81 2 0.417 5.33478 9.20921 59.8944
242 81 2 0.417 4.189 8.61333 60.5816
243 81 5 -0.834 4.70061 8.47181 59.766
244 82 2 0.417 21.1595 17.7935 105.139
245 82 2 0.417 20.0976 18.9206 105.263
246 82 5 -0.834 20.917 18.6372 104.791
247 83 2 0.417 21.0569 18.7622 59.8365
248 83 2 0.417 22.554 19.1796 59.9324
249 83 5 -0.834 21.9601 18.3721 59.94
250 84 2 0.417 0.585117 17.4958 92.8454
251 84 2 0.417 24.1063 17.9928 91.6388
252 84 5 -0.834 1.01506 17.897 92.0613
253 85 2 0.417 1.2723 4.22806 80.6975
254 85 2 0.417 0.969635 3.92949 82.165
255 85 5 -0.834 0.554399 4.1477 81.3073
256 86 2 0.417 16.542 17.0452 37.3728
257 86 2 0.417 16.9435 17.5337 38.7284
258 86 5 -0.834 17.1495 17.6024 37.7357
259 87 2 0.417 13.5903 10.5157 63.5696
260 87 2 0.417 14.8934 11.2456 63.2133
261 87 5 -0.834 13.9005 11.3071 63.1555
262 88 2 0.417 2.89187 8.79013 90.7418
263 88 2 0.417 1.85008 9.33179 89.8519
264 88 5 -0.834 2.42583 8.58819 89.8843
265 89 2 0.417 24.0605 13.7593 35.3769
266 89 2 0.417 23.6086 13.0625 34.106
267 89 5 -0.834 0.373176 13.1854 34.667
268 90 2 0.417 11.132 11.5869 53.0745
269 90 2 0.417 10.1821 10.4594 53.3493
270 90 5 -0.834 10.9946 10.6274 52.8805
271 91 2 0.417 6.78512 19.7642 91.5085
272 91 2 0.417 7.25294 19.4004 92.7999
273 91 5 -0.834 7.63307 19.7161 91.9646
274 92 2 0.417 23.9845 8.00754 52.1287
275 92 2 0.417 23.1141 7.25163 53.1773
276 92 5 -0.834 24.0674 7.31035 52.8071
277 93 2 0.417 3.77368 5.88426 47.7427
278 93 2 0.417 2.27066 6.07219 47.9441
279 93 5 -0.834 3.04637 6.58812 47.6766
280 94 2 0.417 11.4072 15.4289 55.3033
281 94 2 0.417 12.3694 14.4627 55.1021
282 94 5 -0.834 11.8052 15.0072 54.5348
283 95 2 0.417 15.4069 14.8469 46.3811
284 95 2 0.417 14.366 14.1051 47.2684
285 95 5 -0.834 14.739 14.0771 46.3499
286 96 2 0.417 12.3355 7.64544 58.4664
287 96 2 0.417 12.4176 6.9053 59.6391
288 96 5 -0.834 12.1232 6.75837 58.7349
289 97 2 0.417 5.55189 3.40124 74.585
290 97 2 0.417 4.6721 3.70114 75.791
291 97 5 -0.834 4.91957 2.97739 75.1771
292 98 2 0.417 11.7665 13.1317 71.4743
293 98 2 0.417 10.7822 14.2357 71.2757
294 98 5 -0.834 11.3826 13.7057 70.7401
295 99 2 0.417 4.44396 10.148 90.0376
296 99 2 0.417 5.69911 10.8962 89.8917
297 99 5 -0.834 4.81673 10.8712 89.5331
298 100 2 0.417 23.6677 22.1937 82.0621
299 100 2 0.417 23.2271 21.6631 83.3079
300 100 5 -0.834 23.4302 21.321 82.406
301 101 2 0.417 1.97301 19.917 14.8553
302 101 2 0.417 2.99171 19.6107 13.728
303 101 5 -0.834 2.18464 20.1351 13.9074
304 102 2 0.417 23.6914 21.5165 85.1411
305 102 2 0.417 23.0326 22.7521 85.6911
306 102 5 -0.834 23.2779 22.3483 84.8823
307 103 2 0.417 14.0648 12.5767 85.9723
308 103 2 0.417 15.0567 12.0448 85.1213
309 103 5 -0.834 14.6616 11.889 86.0194
310 104 2 0.417 10.3785 0.748712 79.2878
311 104 2 0.417 10.7998 2.17454 79.602
312 104 5 -0.834 9.99894 1.63748 79.6787
313 105 2 0.417 22.8267 20.467 38.9379
314 105 2 0.417 22.4311 19.0357 39.5018
315 105 5 -0.834 22.873 19.5232 38.7138
316 106 2 0.417 20.3217 5.19913 57.5262
317 106 2 0.417 20.7953 4.14237 56.5117
318 106 5 -0.834 20.2106 4.89746 56.6446
319 107 2 0.417 15.8645 1.51792 80.2809
320 107 2 0.417 16.3984 2.13511 79.0876
321 107 5 -0.834 16.4675 1.26496 79.5623
322 108 2 0.417 20.1506 15.9063 39.844
323 108 2 0.417 18.9822 16.6575 39.6212
324 108 5 -0.834 19.8982 16.7714 39.6081
325 109 2 0.417 23.6566 5.96649 68.0601
326 109 2 0.417 0.681536 6.75289 67.1622
327 109 5 -0.834 23.9643 6.0897 67.1059
328 110 2 0.417 17.0506 10.0922 7.28745
329 110 2 0.417 16.3653 9.98494 5.78751
330 110 5 -0.834 17.1802 10.2406 6.3033
331 111 2 0.417 22.9467 18.2224 76.0723
332 111 2 0.417 23.8216 17.9542 77.3004
333 111 5 -0.834 23.7831 17.7332 76.3473
334 112 2 0.417 21.2376 4.70164 46.3183
335 112 2 0.417 20.7169 6.01918 46.5413
336 112 5 -0.834 20.9656 5.45591 45.7891
337 113 2 0.417 23.4359 13.9436 57.1004
338 113 2 0.417 0.33705 12.8331 56.6089
339 113 5 -0.834 0.259168 13.8507 56.6535
340 114 2 0.417 1.87722 13.6032 76.5621
341 114 2 0.417 2.44672 12.2931 76.0758
342 114 5 -0.834 2.4197 13.2187 75.803
343 115 2 0.417 22.261 8.63799 93.4911
344 115 2 0.417 22.6235 7.94208 92.2595
345 115 5 -0.834 22.3044 7.77958 93.1759
346 116 2 0.417 3.62212 8.36964 50.1598
347 116 2 0.417 2.91678 7.95472 49.0598
348 116 5 -0.834 2.94722 8.73759 49.5593
349 117 2 0.417 2.15705 10.7099 14.6624
350 117 2 0.417 3.46664 10.6309 15.449
351 117 5 -0.834 2.7122 10.0594 15.1698
352 118 2 0.417 4.95344 6.6379 23.1117
353 118 2 0.417 5.08207 6.82527 21.5911
354 118 5 -0.834 4.91074 6.11563 22.2862
355 119 2 0.417 2.26516 23.0718 84.7274
356 119 2 0.417 0.915308 23.4035 84.3657
357 119 5 -0.834 1.72742 23.9075 84.5531
358 120 2 0.417 1.53913 17.2013 36.2886
359 120 2 0.417 0.592346 16.1713 36.9849
360 120 5 -0.834 0.731433 17.1386 36.889
361 121 2 0.417 1.16861 12.8105 52.1926
362 121 2 0.417 0.713963 12.2572 50.9416
363 121 5 -0.834 0.443815 12.2991 51.9007
364 122 2 0.417 2.12797 19.7388 72.1958
365 122 2 0.417 2.31002 18.3737 72.8545
366 122 5 -0.834 2.2393 18.761 71.9544
367 123 2 0.417 4.03767 23.0727 75.4996
368 123 2 0.417 2.8209 22.427 75.7264
369 123 5 -0.834 3.72272 22.2178 75.813
370 124 2 0.417 21.2129 16.302 86.9527
371 124 2 0.417 21.1953 17.6939 86.7191
372 124 5 -0.834 21.3818 16.902 86.2337
373 125 2 0.417 4.58892 19.0421 70.0297
374 125 2 0.417 3.5167 18.2764 70.6632
375 125 5 -0.834 4.02594 18.3086 69.7782
376 126 2 0.417 23.6256 6.71372 65.5738
377 126 2 0.417 22.7323 7.0638 64.3298
378 126 5 -0.834 23.6034 7.19693 64.7048
379 127 2 0.417 20.8408 18.4762 75.0647
380 127 2 0.417 20.9183 18.3942 76.5027
381 127 5 -0.834 21.3848 18.8413 75.7335
382 128 2 0.417 5.09348 1.95102 53.8013
383 128 2 0.417 4.44698 1.16023 52.6581
384 128 5 -0.834 5.3285 1.30163 53.0987
385 129 2 0.417 23.4977 12.1988 48.565
386 129 2 0.417 22.5023 13.2838 49.1159
387 129 5 -0.834 22.5539 12.5334 48.4341
388 130 2 0.417 2.88444 2.19714 48.6957
389 130 2 0.417 2.86514 0.806445 49.1141
390 130 5 -0.834 3.49117 1.51067 49.0159
391 131 2 0.417 14.8859 3.57617 82.0258
392 131 2 0.417 14.8011 2.12021 82.4388
393 131 5 -0.834 15.1927 2.68713 81.7608
394 132 2 0.417 17.1281 19.201 36.8551
395 132 2 0.417 17.3941 20.4081 37.7661
396 132 5 -0.834 17.2513 20.157 36.8162
397 133 2 0.417 11.6361 14.3852 41.9223
398 133 2 0.417 10.1195 14.5589 42.0313
399 133 5 -0.834 10.8496 14.8072 41.4813
400 134 2 0.417 19.8451 4.20925 50.4098
401 134 2 0.417 19.6457 5.16274 51.5011
402 134 5 -0.834 20.3485 4.88629 50.9026
403 135 2 0.417 1.37624 4.76541 77.3476
404 135 2 0.417 0.900085 5.74103 76.3374
405 135 5 -0.834 1.74958 5.3216 76.6065
406 136 2 0.417 12.394 18.7673 33.5363
407 136 2 0.417 11.7749 19.3447 32.4787
408 136 5 -0.834 11.4894 18.9925 33.3484
409 137 2 0.417 5.0592 7.27911 53.5754
410 137 2 0.417 4.77745 7.70524 52.2045
411 137 5 -0.834 4.32863 7.37541 53.0184
412 138 2 0.417 7.78376 2.62984 43.6191
413 138 2 0.417 6.46993 2.66975 44.3938
414 138 5 -0.834 6.86481 2.78001 43.509
415 139 2 0.417 8.47394 16.7045 78.717
416 139 2 0.417 7.13093 16.1372 78.7725
417 139 5 -0.834 7.85139 16.3035 78.1407
418 140 2 0.417 5.07703 1.25501 45.3767
419 140 2 0.417 5.54983 1.41236 46.9119
420 140 5 -0.834 5.49257 1.88422 46.0463
421 141 2 0.417 9.70548 20.3944 72.143
422 141 2 0.417 9.05918 21.7211 72.238
423 141 5 -0.834 9.51827 21.1846 71.6107
424 142 2 0.417 21.5692 15.1293 49.1062
425 142 2 0.417 21.981 14.7203 50.4559
426 142 5 -0.834 22.387 14.9512 49.6052
427 143 2 0.417 0.567307 13.3111 81.1717
428 143 2 0.417 1.80819 12.6104 80.5774
429 143 5 -0.834 0.883583 12.8713 80.3549
430 144 2 0.417 11.9909 16.7882 84.5906
431 144 2 0.417 11.125 15.871 85.468
432 144 5 -0.834 11.7148 15.8407 84.7097
433 145 2 0.417 16.6016 22.8714 55.2787
434 145 2 0.417 16.8008 24.2101 54.5984
435 145 5 -0.834 16.0947 23.5525 54.7494
436 146 2 0.417 5.48994 14.1226 19.4103
437 146 2 0.417 4.12736 13.6201 19.1057
438 146 5 -0.834 4.98213 13.6732 18.658
439 147 2 0.417 19.0677 21.093 39.2236
440 147 2 0.417 20.2316 20.4187 39.7047
441 147 5 -0.834 19.9723 20.9325 38.9328
442 148 2 0.417 1.77426 8.59814 41.6275
443 148 2 0.417 2.32787 7.16962 42.0359
444 148 5 -0.834 1.80141 7.62835 41.3648
445 149 2 0.417 9.46362 23.1085 9.90843
446 149 2 0.417 10.9201 23.6592 9.65372
447 149 5 -0.834 10.4033 22.8413 9.90203
448 150 2 0.417 16.2268 16.5895 63.8544
449 150 2 0.417 16.6306 17.3087 65.1719
450 150 5 -0.834 16.8932 17.2302 64.2434
451 151 2 0.417 1.44079 12.2819 62.6492
452 151 2 0.417 2.62854 11.7236 63.1516
453 151 5 -0.834 2.1693 11.6793 62.3418
454 152 2 0.417 2.40145 0.516283 5.84945
455 152 2 0.417 2.6108 1.85879 5.87735
456 152 5 -0.834 1.97383 1.25451 6.27038
457 153 2 0.417 14.2013 12.7088 49.1364
458 153 2 0.417 13.7981 13.7946 49.9423
459 153 5 -0.834 13.8945 13.5793 49.0175
460 154 2 0.417 0.65995 22.6156 37.5381
461 154 2 0.417 1.38665 23.7844 37.0865
462 154 5 -0.834 0.996691 22.954 36.6663
463 155 2 0.417 3.81732 22.1617 31.9938
464 155 2 0.417 5.22841 22.0205 32.222
465 155 5 -0.834 4.40231 21.6893 32.613
466 156 2 0.417 19.8882 22.9317 96.413
467 156 2 0.417 19.6189 24.0705 97.4262
468 156 5 -0.834 19.8337 23.0825 97.4072
469 157 2 0.417 0.473376 3.66166 64.4379
470 157 2 0.417 0.732202 2.8529 63.185
471 157 5 -0.834 0.464239 3.71829 63.4913
472 158 2 0.417 7.66257 23.1224 31.6938
473 158 2 0.417 6.51037 23.131 30.7322
474 158 5 -0.834 6.8635 22.5724 31.4942
475 159 2 0.417 8.49995 19.629 39.806
476 159 2 0.417 7.22628 19.6324 39.0133
477 159 5 -0.834 8.16216 19.9588 38.9802
478 160 2 0.417 9.92998 2.58659 73.8058
479 160 2 0.417 10.1337 2.73803 72.3271
480 160 5 -0.834 9.51056 3.0305 73.0197
481 161 2 0.417 14.8593 21.1145 39.8562
482 161 2 0.417 13.9225 20.6252 38.9072
483 161 5 -0.834 14.2464 21.4577 39.2408
484 162 2 0.417 15.2257 23.8893 78.056
485 162 2 0.417 14.8169 22.7298 78.9687
486 162 5 -0.834 14.4409 23.339 78.3035
487 163 2 0.417 1.55014 11.5484 48.5619
488 163 2 0.417 2.02089 12.7828 49.3972
489 163 5 -0.834 1.31618 12.0703 49.3735
490 164 2 0.417 1.8039 5.49212 91.5777
491 164 2 0.417 2.69602 4.76399 92.7355
492 164 5 -0.834 2.3628 5.6756 92.4009
493 165 2 0.417 10.7373 1.84303 76.0526
494 165 2 0.417 9.74338 0.828861 75.5461
495 165 5 -0.834 10.265 1.5461 75.2811
496 166 2 0.417 5.29139 10.2447 20.7797
497 166 2 0.417 4.56468 11.4314 20.6036
498 166 5 -0.834 5.31307 11.1573 21.0507
499 167 2 0.417 9.18446 15.1442 39.8323
500 167 2 0.417 8.49924 16.0655 38.8538
501 167 5 -0.834 9.29098 15.4815 38.9111
502 168 2 0.417 19.2579 20.2059 51.1848
503 168 2 0.417 19.7537 21.6485 51.6377
504 168 5 -0.834 19.2787 21.0953 50.9292
505 169 2 0.417 10.3871 4.20103 39.8205
506 169 2 0.417 10.0513 3.6187 38.417
507 169 5 -0.834 10.531 4.35304 38.8414
508 170 2 0.417 4.92866 21.4987 85.7724
509 170 2 0.417 5.30671 22.6288 86.7048
510 170 5 -0.834 5.67607 21.9247 86.1459
511 171 2 0.417 19.0087 24.2546 80.196
512 171 2 0.417 17.8683 0.389323 79.3177
513 171 5 -0.834 18.6984 23.8943 79.3538
514 172 2 0.417 16.6738 5.58565 88.1656
515 172 2 0.417 16.4752 4.17817 87.4309
516 172 5 -0.834 16.743 5.08848 87.2991
517 173 2 0.417 2.5679 17.1848 58.4095
518 173 2 0.417 3.58003 17.2733 59.4883
519 173 5 -0.834 3.18843 17.7819 58.7434
520 174 2 0.417 14.6191 23.7112 89.5699
521 174 2 0.417 14.3915 1.10517 89.9168
522 174 5 -0.834 14.5698 0.59488 89.148
523 175 2 0.417 6.63725 14.9351 53.8334
524 175 2 0.417 5.23981 15.4429 54.0683
525 175 5 -0.834 5.87199 15.2749 53.3162
526 176 2 0.417 2.47156 6.31414 70.1254
527 176 2 0.417 3.52564 5.84546 69.1948
528 176 5 -0.834 3.06201 6.64235 69.4227
529 177 2 0.417 10.9878 5.69318 55.8297
530 177 2 0.417 9.94881 5.19981 54.6874
531 177 5 -0.834 10.6629 5.85353 54.9637
532 178 2 0.417 2.25184 23.2617 25.994
533 178 2 0.417 0.956101 23.5849 26.8507
534 178 5 -0.834 1.88799 23.3449 26.9085
535 179 2 0.417 2.37509 15.4709 73.6241
536 179 2 0.417 2.41293 14.0718 74.2302
537 179 5 -0.834 2.50446 14.5279 73.3706
538 180 2 0.417 6.88541 8.36992 17.7927
539 180 2 0.417 5.84733 9.02159 17.0468
540 180 5 -0.834 6.16637 9.03918 17.9596
541 181 2 0.417 21.8694 3.71394 51.1902
542 181 2 0.417 23.1373 3.13005 51.5571
543 181 5 -0.834 22.2306 2.89036 51.2696
544 182 2 0.417 11.9238 22.2828 10.957
545 182 2 0.417 13.1349 21.3982 10.8355
546 182 5 -0.834 12.7127 21.9833 11.4557
547 183 2 0.417 1.84339 22.3715 73.035
548 183 2 0.417 3.26892 21.7583 73.1223
549 183 5 -0.834 2.31325 21.4517 72.9911
550 184 2 0.417 18.3119 11.9095 89.9332
551 184 2 0.417 18.5526 10.9571 90.9478
552 184 5 -0.834 18.0128 11.7213 90.842
553 185 2 0.417 4.63243 10.8823 57.3029
554 185 2 0.417 4.81876 10.9451 55.7854
555 185 5 -0.834 5.25495 11.1703 56.6086
556 186 2 0.417 9.83722 11.0592 64.9031
557 186 2 0.417 10.0064 11.9445 66.1388
558 186 5 -0.834 9.28968 11.4497 65.6062
559 187 2 0.417 17.0145 0.971882 41.1186
560 187 2 0.417 15.9551 0.597983 40.0492
561 187 5 -0.834 16.643 24.217 40.5958
562 188 2 0.417 20.0992 9.77293 38.7978
563 188 2 0.417 18.8756 10.1563 38.138
564 188 5 -0.834 19.5894 10.5276 38.6416
565 189 2 0.417 5.98927 16.7654 90.8261
566 189 2 0.417 4.76852 16.0278 91.1963
567 189 5 -0.834 5.01626 16.659 90.5667
568 190 2 0.417 23.6338 13.5296 63.8359
569 190 2 0.417 23.2862 12.2618 64.6312
570 190 5 -0.834 24.0017 12.7093 64.1337
571 191 2 0.417 23.6416 15.4107 40.0809
572 191 2 0.417 22.2271 14.9296 40.1211
573 191 5 -0.834 22.8373 15.3665 39.4971
574 192 2 0.417 5.00917 12.8851 92.2538
575 192 2 0.417 6.48785 13.1319 92.5713
576 192 5 -0.834 5.7576 13.5513 92.0963
577 193 2 0.417 5.06833 3.58182 46.3452
578 193 2 0.417 5.17013 4.6527 47.5115
579 193 5 -0.834 4.82095 4.53374 46.6249
580 194 2 0.417 18.6853 20.9533 46.4393
581 194 2 0.417 19.9574 20.8166 46.9932
582 194 5 -0.834 19.5567 20.752 46.0934
583 195 2 0.417 12.4639 13.6323 65.8897
584 195 2 0.417 11.7466 13.4298 64.6139
585 195 5 -0.834 11.651 13.2348 65.559
586 196 2 0.417 13.149 14.6072 86.7541
587 196 2 0.417 12.1083 15.2978 87.5435
588 196 5 -0.834 12.7356 14.5722 87.6326
589 197 2 0.417 17.901 14.8746 61.5308
590 197 2 0.417 16.6893 14.1636 61.9361
591 197 5 -0.834 16.9684 14.8378 61.2563
592 198 2 0.417 11.4883 23.1018 68.4
593 198 2 0.417 11.0498 23.5771 67.1194
594 198 5 -0.834 11.4849 23.9495 67.8644
595 199 2 0.417 24.0053 15.5772 63.7567
596 199 2 0.417 0.42101 15.1855 65.127
597 199 5 -0.834 23.6328 15.2779 64.6239
598 200 2 0.417 17.1579 3.43545 81.873
599 200 2 0.417 18.6667 3.56264 81.9159
600 200 5 -0.834 17.9095 3.84643 81.4351
601 201 2 0.417 1.87642 1.48078 38.7169
602 201 2 0.417 1.19051 1.9564 37.414
603 201 5 -0.834 1.09072 1.29887 38.149
604 202 2 0.417 7.83719 13.3082 55.3547
605 202 2 0.417 7.98182 14.7361 55.0281
606 202 5 -0.834 8.09489 13.8554 54.5716
607 203 2 0.417 23.3785 9.04731 49.5977
608 203 2 0.417 22.3802 7.97901 49.7038
609 203 5 -0.834 22.8187 8.56055 49.0041
610 204 2 0.417 23.3102 17.9189 36.7794
611 204 2 0.417 22.1447 18.7281 37.2063
612 204 5 -0.834 22.417 18.1614 36.4679
613 205 2 0.417 10.8782 15.8944 80.1178
614 205 2 0.417 10.4607 14.8279 79.1521
615 205 5 -0.834 10.4354 15.7945 79.2502
616 206 2 0.417 17.3734 18.8416 85.3811
617 206 2 0.417 16.7381 19.9644 86.0621
618 206 5 -0.834 16.8645 19.0058 86.2092
619 207 2 0.417 10.1325 6.97543 86.1544
620 207 2 0.417 9.59488 8.24912 86.8186
621 207 5 -0.834 10.0824 7.97441 86.0482
622 208 2 0.417 22.9437 1.4367 62.0675
623 208 2 0.417 21.809 2.39809 61.6341
624 208 5 -0.834 22.4684 1.74404 61.2912
625 209 2 0.417 5.54575 13.6438 66.2455
626 209 2 0.417 4.8185 14.1733 67.5626
627 209 5 -0.834 4.97915 14.4079 66.6077
628 210 2 0.417 3.78958 19.0584 48.1167
629 210 2 0.417 2.94669 18.8272 46.8689
630 210 5 -0.834 3.88569 19.0686 47.0712
631 211 2 0.417 11.3892 1.5554 14.0667
632 211 2 0.417 10.0663 1.77201 13.4631
633 211 5 -0.834 10.5855 2.20095 14.2255
634 212 2 0.417 2.49663 7.94693 46.4678
635 212 2 0.417 2.73771 8.5841 45.2534
636 212 5 -0.834 2.07733 8.6096 45.9335
637 213 2 0.417 18.7823 12.7296 65.5616
638 213 2 0.417 19.4544 13.8869 64.9521
639 213 5 -0.834 18.8755 13.1121 64.6722
640 214 2 0.417 11.1237 12.1918 75.6311
641 214 2 0.417 11.2551 11.4319 76.9417
642 214 5 -0.834 10.9353 11.3486 76.0296
643 215 2 0.417 20.3564 11.3504 87.8963
644 215 2 0.417 20.8194 11.7303 89.2787
645 215 5 -0.834 20.0234 11.4326 88.7877
646 216 2 0.417 14.9845 19.722 69.0562
647 216 2 0.417 13.9295 20.7291 69.5063
648 216 5 -0.834 13.9715 19.8071 69.2431
649 217 2 0.417 2.08874 15.6886 81.8909
650 217 2 0.417 2.50773 15.0758 83.1449
651 217 5 -0.834 1.70849 15.4282 82.7247
652 218 2 0.417 23.0333 20.2152 48.7669
653 218 2 0.417 23.3547 21.1308 47.6085
654 218 5 -0.834 22.5905 20.7094 48.0803
655 219 2 0.417 18.4863 23.9795 42.2675
656 219 2 0.417 18.326 1.03237 43.3723
657 219 5 -0.834 18.6576 0.881629 42.4626
658 220 2 0.417 5.37194 23.5057 72.2331
659 220 2 0.417 4.32719 23.5947 73.4206
660 220 5 -0.834 4.67689 22.9711 72.7058
661 221 2 0.417 4.19036 10.9617 37.7436
662 221 2 0.417 4.47228 12.0415 36.7869
663 221 5 -0.834 4.64901 11.1089 36.8777
664 222 2 0.417 0.33772 14.9017 78.0601
665 222 2 0.417 0.810209 13.6441 78.4847
666 222 5 -0.834 0.593879 14.0853 77.6425
667 223 2 0.417 4.26187 3.0317 57.994
668 223 2 0.417 2.9457 2.4745 58.1233
669 223 5 -0.834 3.58744 2.5584 57.4702
670 224 2 0.417 13.9474 0.509658 96.687
671 224 2 0.417 14.2278 1.82904 96.0492
672 224 5 -0.834 13.8658 1.41051 96.8821
673 225 2 0.417 10.4797 21.5378 89.4594
674 225 2 0.417 10.5754 22.9409 88.9985
675 225 5 -0.834 10.4505 22.0561 88.6175
676 226 2 0.417 14.3905 14.7323 68.4499
677 226 2 0.417 13.2094 15.6465 68.1983
678 226 5 -0.834 14.1435 15.5288 67.9575
679 227 2 0.417 4.49981 19.8227 90.7151
680 227 2 0.417 4.34468 20.4805 91.9801
681 227 5 -0.834 5.03419 20.3743 91.3069
682 228 2 0.417 16.7468 5.1257 47.864
683 228 2 0.417 18.0083 5.75315 47.7631
684 228 5 -0.834 17.6111 4.99724 47.4397
685 229 2 0.417 14.2071 14.9335 90.8375
686 229 2 0.417 15.5184 15.4797 90.5226
687 229 5 -0.834 14.8035 15.6434 91.1581
688 230 2 0.417 16.2279 19.4366 57.7346
689 230 2 0.417 15.419 20.3653 58.5337
690 230 5 -0.834 15.8217 20.365 57.6546
691 231 2 0.417 18.2367 19.0576 43.1982
692 231 2 0.417 19.3059 19.8255 43.9772
693 231 5 -0.834 19.2537 19.2105 43.222
694 232 2 0.417 9.18077 18.7684 50.6326
695 232 2 0.417 7.85063 19.4098 50.9449
696 232 5 -0.834 8.80104 19.6326 50.719
697 233 2 0.417 8.72063 7.28091 39.7391
698 233 2 0.417 7.92359 8.225 38.9533
699 233 5 -0.834 8.37497 7.38894 38.8803
700 234 2 0.417 19.684 10.2907 79.5918
701 234 2 0.417 20.9467 10.9335 79.116
702 234 5 -0.834 20.1322 10.3831 78.7685
703 235 2 0.417 7.21484 4.03832 70.912
704 235 2 0.417 7.64894 2.56035 71.0179
705 235 5 -0.834 7.86485 3.36819 70.5248
706 236 2 0.417 21.03 11.6608 47.911
707 236 2 0.417 20.3988 11.887 46.6176
708 236 5 -0.834 20.1387 11.5076 47.5029
709 237 2 0.417 5.83761 17.4701 9.4098
710 237 2 0.417 4.39066 17.5724 9.08386
711 237 5 -0.834 4.96094 17.4085 9.81709
712 238 2 0.417 12.527 20.3138 59.8906
713 238 2 0.417 13.5828 21.2862 60.2659
714 238 5 -0.834 13.4661 20.4367 59.7709
715 239 2 0.417 8.06161 23.0114 88.9366
716 239 2 0.417 9.09481 23.8315 89.4195
717 239 5 -0.834 8.21314 23.9585 89.1891
718 240 2 0.417 11.8491 0.448085 90.0356
719 240 2 0.417 10.664 1.39894 89.5522
720 240 5 -0.834 10.9498 0.461289 89.6253
721 241 2 0.417 15.4281 21.7976 45.0795
722 241 2 0.417 14.6684 22.9405 44.4335
723 241 5 -0.834 15.522 22.4052 44.2898
724 242 2 0.417 16.7218 4.44253 67.5623
725 242 2 0.417 16.0296 5.70409 67.2419
726 242 5 -0.834 16.7721 5.11503 66.9054
727 243 2 0.417 10.1536 11.7807 47.0829
728 243 2 0.417 9.69836 11.2711 48.3609
729 243 5 -0.834 9.6882 11.0325 47.456
730 244 2 0.417 8.16251 19.4624 85.4707
731 244 2 0.417 9.01394 20.5556 84.8892
732 244 5 -0.834 9.03414 19.5862 85.1185
733 245 2 0.417 14.7284 20.7046 52.1661
734 245 2 0.417 14.0503 20.3072 51.1211
735 245 5 -0.834 14.9333 20.2738 51.3628
736 246 2 0.417 19.629 4.34885 88.594
737 246 2 0.417 18.4204 4.9553 87.9113
738 246 5 -0.834 19.3903 4.95709 87.8851
739 247 2 0.417 11.9119 23.2559 13.7002
740 247 2 0.417 12.4318 23.7559 12.3444
741 247 5 -0.834 12.0112 24.0656 13.2188
742 248 2 0.417 16.2786 8.97539 35.7487
743 248 2 0.417 15.9001 10.4298 35.7112
744 248 5 -0.834 15.5379 9.5412 35.4782
745 249 2 0.417 14.6492 23.3712 38.9553
746 249 2 0.417 14.776 0.489702 37.8795
747 249 5 -0.834 14.5989 0.329886 38.8071
748 250 2 0.417 17.2578 18.861 69.4821
749 250 2 0.417 17.3075 20.0733 68.587
750 250 5 -0.834 16.746 19.2511 68.7691
751 251 2 0.417 12.9863 7.09653 42.8137
752 251 2 0.417 14.1214 8.18089 42.5321
753 251 5 -0.834 13.6471 7.34566 42.1651