ITEM: TIMESTEP
4000000
ITEM: NUMBER OF ATOMS
5487
ITEM: BOX BOUNDS pp pp pp
2.4900000000000000e-01 2.4248999999999999e+01
2.5950000000000001e-01 2.4259499999999999e+01
0.0000000000000000e+00 1.0536952658408562e+02
ITEM: ATOMS id mol type q x y z
1 1 2 0.417 0.702028 20.6392 63.0991
2 1 2 0.417 1.02106 19.279 62.6551
3 1 5 -0.834 1.05952 20.2157 62.2943
4 2 2 0.417 18.5663 16.6099 36.8763
5 2 2 0.417 19.7777 17.0031 37.6451
6 2 5 -0.834 19.3235 17.2873 36.8257
7 3 2 0.417 21.5802 6.40118 75.5605
8 3 2 0.417 20.9046 6.83896 74.272
9 3 5 -0.834 21.7721 6.87422 74.7447
10 4 2 0.417 0.556977 19.4521 90.6276
11 4 2 0.417 23.2715 18.9778 91.1697
12 4 5 -0.834 23.7686 18.9704 90.2971
13 5 2 0.417 7.29732 20.4789 87.4857
14 5 2 0.417 8.6675 20.4118 87.1855
15 5 5 -0.834 7.85127 20.7458 86.7395
16 6 2 0.417 21.9527 0.816972 86.8646
17 6 2 0.417 21.1336 2.15224 86.7962
18 6 5 -0.834 21.9807 1.72282 86.5752
19 7 2 0.417 19.9559 14.9802 39.8347
20 7 2 0.417 18.8719 15.0305 38.8032
21 7 5 -0.834 19.8849 14.9568 38.8337
22 8 2 0.417 6.31627 10.9245 41.2194
23 8 2 0.417 5.40091 10.0198 41.9267
24 8 5 -0.834 6.01169 9.97726 41.2094
25 9 2 0.417 14.2534 3.1411 19.2686
26 9 2 0.417 15.627 2.42132 19.298
27 9 5 -0.834 14.731 2.36246 19.6322
28 10 2 0.417 23.5019 19.7087 66.7319
29 10 2 0.417 23.9579 20.5063 67.9169
30 10 5 -0.834 0.296286 19.7481 67.3391
31 11 2 0.417 13.0176 4.16891 70.2461
32 11 2 0.417 12.0926 3.0084 70.6189
33 11 5 -0.834 12.0658 3.87225 70.1663
34 12 2 0.417 21.3692 11.0172 72.8324
35 12 2 0.417 21.9238 11.0389 71.4235
36 12 5 -0.834 21.3748 10.5203 72.0235
37 13 2 0.417 19.3395 17.1309 48.6157
38 13 2 0.417 18.0432 16.2701 48.6206
39 13 5 -0.834 18.8814 16.4052 48.0978
40 14 2 0.417 7.05295 4.74982 78.4206
41 14 2 0.417 7.55448 3.81567 77.3577
42 14 5 -0.834 7.46829 3.85946 78.3154
43 15 2 0.417 7.42086 24.2464 6.75192
44 15 2 0.417 8.70251 0.95429 6.41965
45 15 5 -0.834 8.04862 0.330642 5.99981
46 16 2 0.417 6.29947 19.8543 69.1811
47 16 2 0.417 7.14038 19.8611 70.4781
48 16 5 -0.834 6.98836 20.4221 69.6785
49 17 2 0.417 22.6528 17.358 84.9768
50 17 2 0.417 23.7339 17.0627 83.9406
51 17 5 -0.834 22.8424 17.5421 84.0441
52 18 2 0.417 15.9863 12.4981 73.7046
53 18 2 0.417 15.6044 11.8834 75.024
54 18 5 -0.834 15.2223 12.1962 74.2005
55 19 2 0.417 17.3714 12.1787 48.4383
56 19 2 0.417 18.7704 11.7651 48.7496
57 19 5 -0.834 18.0301 11.5402 48.0884
58 20 2 0.417 21.5349 10.8929 89.0929
59 20 2 0.417 20.1585 10.3483 88.6655
60 20 5 -0.834 20.8522 10.8672 88.334
61 21 2 0.417 17.11 7.98943 79.0584
62 21 2 0.417 18.4192 8.49209 79.3053
63 21 5 -0.834 17.5802 8.758 78.8668
64 22 2 0.417 7.65635 21.5496 75.9521
65 22 2 0.417 7.59668 20.757 74.7688
66 22 5 -0.834 7.92855 20.727 75.6787
67 23 2 0.417 21.5584 21.8817 46.5673
68 23 2 0.417 20.1952 21.3596 46.0811
69 23 5 -0.834 21.1094 21.0555 46.3001
70 24 2 0.417 3.5765 14.4429 84.9618
71 24 2 0.417 2.73476 14.849 86.0664
72 24 5 -0.834 3.29492 15.2253 85.36
73 25 2 0.417 16.91 15.7131 43.984
74 25 2 0.417 18.0377 15.3912 44.9003
75 25 5 -0.834 17.4854 14.9959 44.2442
76 26 2 0.417 11.0648 20.365 69.0289
77 26 2 0.417 10.2648 19.062 69.1882
78 26 5 -0.834 11.1154 19.5172 69.4343
79 27 2 0.417 5.93162 10.6453 75.9379
80 27 2 0.417 6.58522 12.1093 75.8975
81 27 5 -0.834 6.54934 11.2502 75.4027
82 28 2 0.417 13.895 12.2735 51.4735
83 28 2 0.417 15.2676 11.795 51.9312
84 28 5 -0.834 14.8802 12.3705 51.3493
85 29 2 0.417 3.94072 21.4255 58.9359
86 29 2 0.417 4.41575 20.0323 58.3933
87 29 5 -0.834 4.02528 20.4531 59.1927
88 30 2 0.417 22.4018 8.78717 37.8607
89 30 2 0.417 22.1658 10.1531 38.2904
90 30 5 -0.834 22.8988 9.57116 38.1264
91 31 2 0.417 13.7347 2.44992 15.5645
92 31 2 0.417 13.9507 1.00888 15.7281
93 31 5 -0.834 13.317 1.66086 15.9825
94 32 2 0.417 12.6773 11.8019 87.6698
95 32 2 0.417 13.9075 11.231 88.3994
96 32 5 -0.834 13.556 12.0395 87.9282
97 33 2 0.417 19.3139 4.32859 57.0678
98 33 2 0.417 19.8735 5.24348 55.9454
99 33 5 -0.834 19.7059 4.3138 56.1587
100 34 2 0.417 22.7703 20.7553 34.3975
101 34 2 0.417 22.5009 20.426 35.8517
102 34 5 -0.834 23.2144 20.6698 35.2179
103 35 2 0.417 1.07594 21.847 91.0758
104 35 2 0.417 1.77511 22.0106 89.7042
105 35 5 -0.834 1.0978 22.4259 90.253
106 36 2 0.417 11.2558 17.1337 52.488
107 36 2 0.417 11.8647 18.3513 51.7329
108 36 5 -0.834 11.6241 17.4227 51.6143
109 37 2 0.417 6.62595 24.2228 66.193
110 37 2 0.417 6.36227 1.72866 66.0959
111 37 5 -0.834 6.29855 0.903963 65.5689
112 38 2 0.417 18.5094 12.4349 72.4145
113 38 2 0.417 18.2062 11.2206 73.1324
114 38 5 -0.834 17.882 12.125 73.0948
115 39 2 0.417 12.4662 17.0348 82.4231
116 39 2 0.417 12.6285 17.8502 81.3196
117 39 5 -0.834 13.1183 17.6739 82.103
118 40 2 0.417 14.2744 23.2424 8.61097
119 40 2 0.417 13.2557 22.943 9.73581
120 40 5 -0.834 13.4299 22.7635 8.81283
121 41 2 0.417 18.0301 0.773522 38.7615
122 41 2 0.417 16.847 1.65725 38.2917
123 41 5 -0.834 17.6367 1.13143 37.9481
124 42 2 0.417 13.0423 0.93276 92.4615
125 42 2 0.417 14.3843 0.915688 91.8458
126 42 5 -0.834 13.4708 0.907255 91.6035
127 43 2 0.417 23.2252 1.18503 68.8339
128 43 2 0.417 23.552 1.7951 67.4434
129 43 5 -0.834 22.8887 1.2957 67.9045
130 44 2 0.417 14.4732 4.07274 17.9891
131 44 2 0.417 13.2117 4.66496 17.9775
132 44 5 -0.834 14.0267 4.73277 18.425
133 45 2 0.417 11.9104 11.0155 1.44178
134 45 2 0.417 12.3301 11.7296 0.161984
135 45 5 -0.834 12.4592 11.7623 1.07643
136 46 2 0.417 16.7557 22.8698 62.0902
137 46 2 0.417 16.1929 22.7098 63.511
138 46 5 -0.834 16.246 22.234 62.6702
139 47 2 0.417 8.47769 9.76217 84.3328
140 47 2 0.417 8.41643 10.6528 83.0838
141 47 5 -0.834 8.86535 9.87915 83.4196
142 48 2 0.417 20.8002 23.0566 53.7409
143 48 2 0.417 19.8402 22.4166 52.6539
144 48 5 -0.834 20.3032 22.2056 53.4764
145 49 2 0.417 10.8212 22.3738 64.606
146 49 2 0.417 12.1273 21.7035 64.2758
147 49 5 -0.834 11.3362 22.0861 63.851
148 50 2 0.417 1.33047 6.62252 25.4869
149 50 2 0.417 2.66542 7.23113 25.2793
150 50 5 -0.834 1.86611 7.3669 25.8085
151 51 2 0.417 16.2367 22.8769 66.7866
152 51 2 0.417 17.4484 22.8068 65.7908
153 51 5 -0.834 16.4919 22.935 65.8352
154 52 2 0.417 10.0424 15.9441 70.725
155 52 2 0.417 8.74756 15.1971 70.8005
156 52 5 -0.834 9.17413 15.9727 70.3487
157 53 2 0.417 6.26725 2.22225 0.934052
158 53 2 0.417 7.24301 1.91478 2.0515
159 53 5 -0.834 7.23109 2.21227 1.10135
160 54 2 0.417 12.2396 2.88829 44.4876
161 54 2 0.417 11.4861 1.88821 43.6661
162 54 5 -0.834 12.371 2.09418 43.9525
163 55 2 0.417 22.6143 4.07677 35.5556
164 55 2 0.417 21.3949 4.48607 34.7689
165 55 5 -0.834 21.8352 3.70169 35.1644
166 56 2 0.417 13.598 13.6003 81.096
167 56 2 0.417 12.9342 13.0921 82.331
168 56 5 -0.834 12.7072 13.3348 81.4207
169 57 2 0.417 6.51328 5.47543 49.0819
170 57 2 0.417 6.24666 6.8661 48.6377
171 57 5 -0.834 6.37478 5.99557 48.2521
172 58 2 0.417 3.7571 23.8289 58.9442
173 58 2 0.417 2.63266 23.1201 59.6679
174 58 5 -0.834 3.33456 22.9384 58.9998
175 59 2 0.417 8.02641 11.5835 58.8216
176 59 2 0.417 8.52911 10.1414 59.1206
177 59 5 -0.834 8.67533 10.8869 58.5283
178 60 2 0.417 22.7029 8.98949 89.2355
179 60 2 0.417 21.5214 8.38135 88.5089
180 60 5 -0.834 22.5078 8.34694 88.4771
181 61 2 0.417 1.40023 2.81192 59.596
182 61 2 0.417 2.36814 3.32136 60.6876
183 61 5 -0.834 2.26775 3.3503 59.6895
184 62 2 0.417 5.23603 5.77506 60.2528
185 62 2 0.417 3.8955 6.50284 60.4439
186 62 5 -0.834 4.77448 6.40019 60.8225
187 63 2 0.417 17.8883 10.8061 76.1135
188 63 2 0.417 18.0911 12.2069 76.259
189 63 5 -0.834 17.3891 11.598 76.0761
190 64 2 0.417 19.5851 6.73483 82.0527
191 64 2 0.417 19.6334 7.16736 83.5471
192 64 5 -0.834 19.0367 6.89556 82.8609
193 65 2 0.417 8.98625 16.3116 35.7537
194 65 2 0.417 10.4828 15.8252 35.7481
195 65 5 -0.834 9.60082 15.5128 35.4547
196 66 2 0.417 13.9817 5.02428 91.8732
197 66 2 0.417 13.25 3.69634 92.0797
198 66 5 -0.834 14.1409 4.08788 92.0831
199 67 2 0.417 8.98856 3.10934 90.8786
200 67 2 0.417 10.0063 2.57108 89.8688
201 67 5 -0.834 9.05921 2.80483 89.899
202 68 2 0.417 22.0674 16.5134 58.7417
203 68 2 0.417 20.8092 16.9368 59.4093
204 68 5 -0.834 21.7995 16.977 59.5278
205 69 2 0.417 0.744921 3.2643 43.0856
206 69 2 0.417 1.20221 3.62656 41.6525
207 69 5 -0.834 1.51798 3.51947 42.5444
208 70 2 0.417 6.88813 7.69561 78.6482
209 70 2 0.417 6.10163 8.36242 79.8044
210 70 5 -0.834 6.09021 8.24861 78.858
211 71 2 0.417 13.6008 16.6177 59.2039
212 71 2 0.417 14.549 15.922 60.2352
213 71 5 -0.834 14.3065 16.7855 59.795
214 72 2 0.417 18.5228 2.00513 79.3487
215 72 2 0.417 18.6978 3.42695 79.9337
216 72 5 -0.834 19.2093 2.57783 79.8065
217 73 2 0.417 12.2451 4.64846 88.3282
218 73 2 0.417 12.3817 5.57806 87.206
219 73 5 -0.834 12.9359 4.93669 87.7277
220 74 2 0.417 1.56432 22.3983 61.6991
221 74 2 0.417 0.738396 23.5469 61.2137
222 74 5 -0.834 1.29331 22.791 60.8814
223 75 2 0.417 4.02767 1.98224 105.265
224 75 2 0.417 4.25512 0.792645 0.535123
225 75 5 -0.834 4.47105 1.67049 0.731726
226 76 2 0.417 11.5903 21.8881 75.951
227 76 2 0.417 10.9904 23.2049 75.3013
228 76 5 -0.834 11.7705 22.6491 75.3828
229 77 2 0.417 11.2604 17.3275 4.24337
230 77 2 0.417 10.2193 18.372 4.13141
231 77 5 -0.834 10.8394 18.0342 4.79307
232 78 2 0.417 5.06918 17.2082 39.8173
233 78 2 0.417 3.95212 17.0469 38.8282
234 78 5 -0.834 4.68561 17.6746 39.0168
235 79 2 0.417 14.8325 20.0809 36.2756
236 79 2 0.417 14.3338 21.4649 36.1495
237 79 5 -0.834 15.1103 21.0046 35.9654
238 80 2 0.417 4.25034 2.22529 58.0067
239 80 2 0.417 3.28219 2.0517 59.0022
240 80 5 -0.834 3.89283 1.49792 58.511
241 81 2 0.417 6.16956 5.45685 57.8025
242 81 2 0.417 5.61886 5.83018 56.38
243 81 5 -0.834 6.49321 5.72083 56.8681
244 82 2 0.417 10.423 0.548351 7.65741
245 82 2 0.417 10.1891 1.70869 8.54555
246 82 5 -0.834 9.84386 1.31072 7.72337
247 83 2 0.417 11.5429 12.4033 62.8579
248 83 2 0.417 11.4125 10.8927 62.356
249 83 5 -0.834 10.869 11.6923 62.6522
250 84 2 0.417 10.9954 21.8696 62.1995
251 84 2 0.417 11.876 21.9639 60.9659
252 84 5 -0.834 10.9736 21.7154 61.233
253 85 2 0.417 23.833 12.7398 76.284
254 85 2 0.417 22.7044 12.0194 77.1225
255 85 5 -0.834 22.8762 12.8062 76.5073
256 86 2 0.417 4.43122 19.0451 62.1379
257 86 2 0.417 4.58139 17.6116 61.6388
258 86 5 -0.834 3.89263 18.2589 61.9076
259 87 2 0.417 22.4428 0.267446 74.8741
260 87 2 0.417 22.4615 24.203 76.3456
261 87 5 -0.834 22.99 23.8784 75.5669
262 88 2 0.417 23.5574 9.69088 73.637
263 88 2 0.417 0.816811 8.89462 73.725
264 88 5 -0.834 0.475812 9.67077 73.1834
265 89 2 0.417 16.6119 18.5113 62.7768
266 89 2 0.417 16.9945 19.9028 62.6857
267 89 5 -0.834 17.4507 19.0053 62.8692
268 90 2 0.417 23.2607 17.8967 68.6006
269 90 2 0.417 23.8085 16.6431 69.1599
270 90 5 -0.834 23.028 16.9718 68.7234
271 91 2 0.417 1.67024 6.56544 60.7838
272 91 2 0.417 1.90547 6.26067 59.3298
273 91 5 -0.834 2.24373 6.81182 60.0128
274 92 2 0.417 9.84544 24.081 41.8283
275 92 2 0.417 9.32134 22.7528 41.4485
276 92 5 -0.834 10.1532 23.2488 41.3637
277 93 2 0.417 9.37424 23.516 80.3717
278 93 2 0.417 10.2007 23.0997 81.5551
279 93 5 -0.834 9.48184 22.77 81
280 94 2 0.417 2.07943 3.84673 89.2368
281 94 2 0.417 3.23126 4.36733 90.0447
282 94 5 -0.834 2.26897 4.36526 90.0251
283 95 2 0.417 8.31347 2.51205 36.4244
284 95 2 0.417 9.69974 2.05132 35.9772
285 95 5 -0.834 9.23984 2.8461 36.1235
286 96 2 0.417 9.26985 15.574 74.4534
287 96 2 0.417 10.0261 14.2605 74.0939
288 96 5 -0.834 10.1846 15.2034 74.185
289 97 2 0.417 12.3484 1.4477 60.0028
290 97 2 0.417 11.8891 1.10189 61.4415
291 97 5 -0.834 11.5511 1.16334 60.5072
292 98 2 0.417 1.64318 22.0627 58.1062
293 98 2 0.417 1.02313 20.7306 58.5872
294 98 5 -0.834 1.01773 21.3749 57.7929
295 99 2 0.417 7.51469 22.3177 59.5823
296 99 2 0.417 7.83272 23.7428 60.0951
297 99 5 -0.834 7.41275 23.2709 59.307
298 100 2 0.417 20.364 2.58243 83.0541
299 100 2 0.417 19.3188 2.71184 81.8172
300 100 5 -0.834 19.6994 2.11528 82.5466
301 101 2 0.417 8.82078 11.1263 104.526
302 101 2 0.417 9.56702 11.7669 0.303178
303 101 5 -0.834 9.51872 10.9332 105.18
304 102 2 0.417 10.4583 22.2686 39.7603
305 102 2 0.417 10.4428 22.601 38.2914
306 102 5 -0.834 10.7244 21.9501 38.8963
307 103 2 0.417 15.0099 16.7861 88.2274
308 103 2 0.417 15.5557 18.1367 88.1286
309 103 5 -0.834 15.7403 17.2768 88.6059
310 104 2 0.417 8.10394 14.359 83.8138
311 104 2 0.417 8.19773 15.8684 83.5656
312 104 5 -0.834 8.77066 15.0866 83.5662
313 105 2 0.417 1.752 14.6493 88.1923
314 105 2 0.417 2.61923 13.4777 88.0796
315 105 5 -0.834 2.16593 14.0966 87.5025
316 106 2 0.417 12.6407 22.7974 36.9115
317 106 2 0.417 12.2644 21.8684 37.9539
318 106 5 -0.834 12.8863 21.9733 37.2853
319 107 2 0.417 6.42617 21.785 72.8908
320 107 2 0.417 6.90255 20.4276 72.4678
321 107 5 -0.834 6.7437 20.958 73.2621
322 108 2 0.417 19.7141 18.8035 71.9215
323 108 2 0.417 19.1383 19.644 70.8599
324 108 5 -0.834 19.8927 19.0284 70.9825
325 109 2 0.417 14.6701 3.66217 78.2925
326 109 2 0.417 13.8948 5.01565 78.493
327 109 5 -0.834 14.6899 4.67855 78.0663
328 110 2 0.417 4.06944 22.8621 4.28916
329 110 2 0.417 4.82843 22.5415 5.48279
330 110 5 -0.834 4.8354 23.1446 4.7759
331 111 2 0.417 14.4512 22.333 59.249
332 111 2 0.417 14.4779 21.2374 58.5183
333 111 5 -0.834 14.8224 22.1309 58.4414
334 112 2 0.417 10.5265 9.48015 40.7589
335 112 2 0.417 11.1753 8.18272 40.9823
336 112 5 -0.834 11.3739 9.08622 40.8236
337 113 2 0.417 7.20255 7.14379 44.9256
338 113 2 0.417 8.05663 8.33313 45.0248
339 113 5 -0.834 8.1047 7.46281 44.6279
340 114 2 0.417 23.4208 0.921316 82.5666
341 114 2 0.417 22.9321 2.22813 82.7545
342 114 5 -0.834 23.4812 1.75552 82.089
343 115 2 0.417 9.09994 5.76404 79.1288
344 115 2 0.417 10.3568 5.27156 78.4246
345 115 5 -0.834 10.0831 5.74842 79.2602
346 116 2 0.417 7.00697 7.66128 39.1663
347 116 2 0.417 5.69002 7.55288 39.9179
348 116 5 -0.834 5.9987 7.48478 38.9949
349 117 2 0.417 3.06655 23.3841 2.07031
350 117 2 0.417 2.66283 24.1237 3.35044
351 117 5 -0.834 2.60815 23.2399 2.93263
352 118 2 0.417 2.58143 3.60059 31.5664
353 118 2 0.417 3.00098 2.10367 31.4456
354 118 5 -0.834 2.41049 2.77912 31.985
355 119 2 0.417 9.91446 11.1104 53.7926
356 119 2 0.417 9.37146 10.1969 52.6997
357 119 5 -0.834 9.85895 11.041 52.8481
358 120 2 0.417 11.4504 22.4205 49.6289
359 120 2 0.417 11.9618 21.1881 50.309
360 120 5 -0.834 12.1923 21.761 49.5425
361 121 2 0.417 19.1044 2.9577 61.6819
362 121 2 0.417 17.6925 2.32247 61.9596
363 121 5 -0.834 18.5565 2.15582 61.5347
364 122 2 0.417 18.8637 13.2347 91.625
365 122 2 0.417 18.0781 14.3205 91.0826
366 122 5 -0.834 18.5035 14.1628 91.9205
367 123 2 0.417 22.5159 15.6132 93.6234
368 123 2 0.417 23.039 16.8619 93.1543
369 123 5 -0.834 23.2223 16.2286 93.8541
370 124 2 0.417 3.18812 12.5254 93.1224
371 124 2 0.417 2.72961 13.9435 93.0561
372 124 5 -0.834 2.42977 13.0286 92.88
373 125 2 0.417 9.66272 13.5243 37.7106
374 125 2 0.417 11.045 13.2687 37.3488
375 125 5 -0.834 10.2215 13.2302 36.9126
376 126 2 0.417 15.2153 5.531 67.1326
377 126 2 0.417 14.7786 4.16073 67.3474
378 126 5 -0.834 14.7428 4.81951 66.6581
379 127 2 0.417 21.3949 3.57359 56.2804
380 127 2 0.417 22.1649 2.23311 56.082
381 127 5 -0.834 22.2283 3.22121 55.971
382 128 2 0.417 22.8978 4.77566 53.2067
383 128 2 0.417 22.0448 4.65478 54.3866
384 128 5 -0.834 22.6169 5.28991 53.9157
385 129 2 0.417 11.6271 20.4848 85.8903
386 129 2 0.417 11.3292 19.2467 86.7316
387 129 5 -0.834 11.7468 19.5133 85.9076
388 130 2 0.417 23.8473 9.46278 30.1911
389 130 2 0.417 0.77746 10.4376 30.1936
390 130 5 -0.834 0.381287 9.82389 30.822
391 131 2 0.417 8.38422 23.273 45.5707
392 131 2 0.417 8.12384 23.5768 44.1541
393 131 5 -0.834 8.79905 23.733 44.8664
394 132 2 0.417 3.99046 21.6472 62.2948
395 132 2 0.417 4.29249 20.8709 61.0414
396 132 5 -0.834 4.63692 21.025 61.9692
397 133 2 0.417 21.8121 0.995042 78.1089
398 133 2 0.417 20.7156 23.9147 78.0042
399 133 5 -0.834 21.2104 0.557622 77.4316
400 134 2 0.417 13.9864 7.41493 40.3823
401 134 2 0.417 14.9412 6.48837 39.5708
402 134 5 -0.834 14.6303 7.41399 39.664
403 135 2 0.417 0.870428 16.4229 99.9563
404 135 2 0.417 1.01213 17.1486 101.227
405 135 5 -0.834 0.739805 17.3426 100.358
406 136 2 0.417 10.8436 3.47558 81.0896
407 136 2 0.417 11.3262 3.40256 79.7642
408 136 5 -0.834 10.8939 2.79282 80.4133
409 137 2 0.417 10.0532 13.1262 61.3904
410 137 2 0.417 8.57323 13.426 61.3923
411 137 5 -0.834 9.35957 13.5864 60.8735
412 138 2 0.417 11.6645 0.343668 89.3618
413 138 2 0.417 12.3183 1.22645 90.35
414 138 5 -0.834 11.5683 1.21555 89.6674
415 139 2 0.417 14.3126 14.9246 89.945
416 139 2 0.417 14.1983 13.696 90.9095
417 139 5 -0.834 14.2204 14.6928 90.882
418 140 2 0.417 2.03374 12.7502 79.6394
419 140 2 0.417 3.19266 13.6426 79.5061
420 140 5 -0.834 2.90867 12.7387 79.264
421 141 2 0.417 23.2483 6.19411 90.7704
422 141 2 0.417 22.6212 6.58871 92.134
423 141 5 -0.834 23.4567 6.36476 91.7232
424 142 2 0.417 16.033 13.6121 44.7969
425 142 2 0.417 14.7005 13.9631 45.4886
426 142 5 -0.834 15.196 13.2063 45.0705
427 143 2 0.417 1.17884 22.8177 78.0898
428 143 2 0.417 23.7853 23.0397 78.7668
429 143 5 -0.834 0.510944 23.4969 78.2729
430 144 2 0.417 2.66746 2.1088 42.2422
431 144 2 0.417 3.55541 1.01785 42.915
432 144 5 -0.834 3.2316 1.32338 42.0095
433 145 2 0.417 13.8803 10.3931 72.4217
434 145 2 0.417 15.2683 10.1412 73.0278
435 145 5 -0.834 14.5029 9.69656 72.6324
436 146 2 0.417 11.4138 22.5043 6.51529
437 146 2 0.417 12.1748 22.8036 7.72785
438 146 5 -0.834 11.2662 22.855 7.4185
439 147 2 0.417 2.28857 2.81025 55.1661
440 147 2 0.417 3.65446 2.31255 54.824
441 147 5 -0.834 3.05732 3.03795 54.5728
442 148 2 0.417 10.393 0.979888 47.8674
443 148 2 0.417 9.77002 0.933022 46.5013
444 148 5 -0.834 10.3321 1.4561 47.0418
445 149 2 0.417 4.34241 3.00396 3.21398
446 149 2 0.417 3.66011 2.10999 2.13756
447 149 5 -0.834 3.60292 2.28301 3.10881
448 150 2 0.417 2.11187 12.6521 70.2908
449 150 2 0.417 2.59587 13.8594 69.4445
450 150 5 -0.834 2.75282 12.8964 69.6219
451 151 2 0.417 15.6434 5.81779 58.5591
452 151 2 0.417 15.3554 7.1811 57.9133
453 151 5 -0.834 15.8332 6.34562 57.731
454 152 2 0.417 3.03921 2.03038 6.66043
455 152 2 0.417 1.63424 2.22463 6.45076
456 152 5 -0.834 2.21536 2.06735 7.1818
457 153 2 0.417 2.79821 18.5672 46.7684
458 153 2 0.417 3.90226 17.5936 46.1404
459 153 5 -0.834 2.92425 17.7519 46.2864
460 154 2 0.417 6.02242 19.0333 45.5212
461 154 2 0.417 6.33425 18.2597 46.7804
462 154 5 -0.834 5.67539 18.3727 46.0945
463 155 2 0.417 11.2323 11.5417 51.9414
464 155 2 0.417 12.097 12.4682 52.8151
465 155 5 -0.834 11.97 12.1949 51.8986
466 156 2 0.417 11.0285 9.16037 36.4261
467 156 2 0.417 10.7441 8.0174 35.5021
468 156 5 -0.834 11.392 8.77244 35.6059
469 157 2 0.417 16.0026 19.6076 76.4971
470 157 2 0.417 17.1466 19.1442 75.4786
471 157 5 -0.834 16.256 19.6314 75.5312
472 158 2 0.417 1.96656 2.91063 66.4041
473 158 2 0.417 1.16094 3.17894 67.656
474 158 5 -0.834 0.996346 2.98138 66.7162
475 159 2 0.417 8.59209 5.29347 42.8746
476 159 2 0.417 8.38298 6.76652 42.7857
477 159 5 -0.834 8.26989 5.96026 42.2539
478 160 2 0.417 3.82307 0.704221 73.9144
479 160 2 0.417 4.15166 0.464977 72.5283
480 160 5 -0.834 3.5217 0.955193 73.0252
481 161 2 0.417 12.2061 4.75934 95.6359
482 161 2 0.417 10.8416 5.2345 95.9503
483 161 5 -0.834 11.4962 4.55222 96.2585
484 162 2 0.417 12.5295 15.2789 85.3453
485 162 2 0.417 13.9149 15.2527 84.7321
486 162 5 -0.834 13.4036 15.6684 85.4809
487 163 2 0.417 3.54059 10.2869 55.5733
488 163 2 0.417 2.91774 8.94776 55.2172
489 163 5 -0.834 3.15855 9.80811 54.8223
490 164 2 0.417 2.53901 5.5079 91.3993
491 164 2 0.417 1.2046 5.95767 91.9152
492 164 5 -0.834 2.13555 5.89129 92.2174
493 165 2 0.417 5.84045 1.36689 54.1474
494 165 2 0.417 5.60642 0.745481 55.5002
495 165 5 -0.834 5.4867 1.62263 55.0459
496 166 2 0.417 1.66869 2.65417 4.15143
497 166 2 0.417 0.377128 1.97526 4.29017
498 166 5 -0.834 1.07424 2.36812 4.87865
499 167 2 0.417 20.3815 19.7282 53.1676
500 167 2 0.417 20.9932 18.5327 52.6278
501 167 5 -0.834 20.164 19.023 52.6146
502 168 2 0.417 6.0537 22.3884 50.8735
503 168 2 0.417 7.38804 22.5534 51.3473
504 168 5 -0.834 6.88734 21.923 50.8458
505 169 2 0.417 6.86411 4.36311 21.9494
506 169 2 0.417 8.08765 4.9985 21.8589
507 169 5 -0.834 7.16994 5.227 21.8336
508 170 2 0.417 14.702 6.21569 55.9591
509 170 2 0.417 15.2311 6.51305 54.6564
510 170 5 -0.834 14.4508 6.12309 55.0081
511 171 2 0.417 9.10207 20.4999 57.7476
512 171 2 0.417 10.1003 20.1683 56.732
513 171 5 -0.834 9.16098 20.2667 56.8135
514 172 2 0.417 0.685757 9.04079 79.5134
515 172 2 0.417 23.6505 8.19255 80.0757
516 172 5 -0.834 24.0717 8.32158 79.2422
517 173 2 0.417 17.7787 23.5854 37.1046
518 173 2 0.417 18.8257 22.7559 36.3906
519 173 5 -0.834 17.8861 22.7731 36.5405
520 174 2 0.417 9.28598 3.02046 50.1702
521 174 2 0.417 8.28018 4.05769 50.2069
522 174 5 -0.834 8.51119 3.33811 49.6726
523 175 2 0.417 1.84128 8.56624 46.2218
524 175 2 0.417 2.21416 8.70688 47.655
525 175 5 -0.834 2.67612 8.67141 46.8174
526 176 2 0.417 12.1141 17.1378 36.9876
527 176 2 0.417 13.1433 18.3945 36.9747
528 176 5 -0.834 12.3348 18.0661 37.3895
529 177 2 0.417 3.01012 10.2502 91.314
530 177 2 0.417 2.37972 11.6178 91.5215
531 177 5 -0.834 2.69625 11.0112 90.8374
532 178 2 0.417 15.6682 3.26972 10.2914
533 178 2 0.417 14.915 1.91911 10.3123
534 178 5 -0.834 15.7865 2.31526 10.0265
535 179 2 0.417 13.8085 23.4075 54.7505
536 179 2 0.417 14.5693 23.7135 56.0159
537 179 5 -0.834 13.8169 23.1663 55.703
538 180 2 0.417 3.19547 23.4228 53.4005
539 180 2 0.417 1.99147 23.3798 54.3899
540 180 5 -0.834 2.40057 22.9399 53.6338
541 181 2 0.417 7.09023 12.422 91.2257
542 181 2 0.417 6.10972 11.1367 91.1226
543 181 5 -0.834 6.45855 11.9459 90.6421
544 182 2 0.417 4.41778 1.02519 5.14242
545 182 2 0.417 4.70309 2.42352 5.02825
546 182 5 -0.834 4.53481 1.79733 5.73966
547 183 2 0.417 17.413 24.1237 69.6196
548 183 2 0.417 15.9817 0.490324 69.9151
549 183 5 -0.834 16.6154 0.554529 69.2088
550 184 2 0.417 4.67113 7.4349 86.5003
551 184 2 0.417 4.10988 7.26347 85.1426
552 184 5 -0.834 4.42698 7.98817 85.7341
553 185 2 0.417 7.19668 21.7392 78.2582
554 185 2 0.417 6.4786 23.1067 78.1912
555 185 5 -0.834 7.27273 22.6182 77.8578
556 186 2 0.417 4.93165 15.0674 47.1252
557 186 2 0.417 5.25278 15.8182 48.292
558 186 5 -0.834 5.69952 15.513 47.5167
559 187 2 0.417 4.18791 12.5557 48.2048
560 187 2 0.417 2.79363 12.8374 48.7203
561 187 5 -0.834 3.68283 12.6162 49.0397
562 188 2 0.417 7.19243 24.1325 9.42862
563 188 2 0.417 8.53118 23.2864 9.31209
564 188 5 -0.834 8.04819 23.8844 9.90477
565 189 2 0.417 3.34695 11.1065 57.568
566 189 2 0.417 4.766 11.3384 57.266
567 189 5 -0.834 3.9096 11.4076 56.8055
568 190 2 0.417 3.4233 2.75006 62.5404
569 190 2 0.417 2.19432 3.21681 63.2169
570 190 5 -0.834 2.61216 3.20281 62.3432
571 191 2 0.417 11.4253 6.88401 39.3227
572 191 2 0.417 10.1064 6.39707 39.0655
573 191 5 -0.834 10.7396 7.00843 38.6764
574 192 2 0.417 13.6442 6.52557 75.5742
575 192 2 0.417 12.5902 7.46356 75.0203
576 192 5 -0.834 12.7916 6.52395 75.0328
577 193 2 0.417 16.4165 19.4917 79.1759
578 193 2 0.417 17.2121 18.8104 78.3318
579 193 5 -0.834 16.5902 19.509 78.262
580 194 2 0.417 8.29264 20.6169 49.981
581 194 2 0.417 9.4445 19.6836 49.8956
582 194 5 -0.834 9.1206 20.456 49.4255
583 195 2 0.417 23.4725 2.22074 36.8365
584 195 2 0.417 23.1267 1.11986 37.8439
585 195 5 -0.834 22.9749 1.35446 36.8652
586 196 2 0.417 1.07917 13.7126 63.7243
587 196 2 0.417 1.93734 12.4025 63.4486
588 196 5 -0.834 1.26565 13.0336 63.0179
589 197 2 0.417 13.1493 23.521 43.086
590 197 2 0.417 13.7027 0.851568 43.575
591 197 5 -0.834 13.9946 24.1136 42.9765
592 198 2 0.417 1.15783 1.16622 51.8221
593 198 2 0.417 0.71972 23.8572 52.5075
594 198 5 -0.834 0.350148 0.705261 52.1417
595 199 2 0.417 14.9682 13.5079 83.8038
596 199 2 0.417 14.5578 12.1499 83.9273
597 199 5 -0.834 14.203 13.101 84.0296
598 200 2 0.417 13.9086 0.959927 65.7883
599 200 2 0.417 15.0516 24.2238 65.2847
600 200 5 -0.834 14.2748 0.719168 64.9166
601 201 2 0.417 19.5552 19.9955 36.048
602 201 2 0.417 20.181 20.6498 37.1436
603 201 5 -0.834 20.2996 20.5919 36.2038
604 202 2 0.417 11.7963 6.43547 89.7769
605 202 2 0.417 10.8585 5.71724 90.7757
606 202 5 -0.834 11.2003 5.69975 89.8865
607 203 2 0.417 17.2266 15.1884 83.7441
608 203 2 0.417 16.7933 14.6408 85.0413
609 203 5 -0.834 16.6564 14.536 84.1047
610 204 2 0.417 2.92454 11.2451 65.5366
611 204 2 0.417 4.10604 11.859 65.2903
612 204 5 -0.834 3.28759 11.6312 64.784
613 205 2 0.417 18.2024 22.3295 57.4013
614 205 2 0.417 16.8134 22.2846 57.8464
615 205 5 -0.834 17.6364 22.7329 57.992
616 206 2 0.417 11.5327 14.8699 81.6719
617 206 2 0.417 10.2754 15.1438 82.5341
618 206 5 -0.834 11.0376 15.6071 82.1212
619 207 2 0.417 4.5205 24.1155 76.5391
620 207 2 0.417 4.36731 1.60573 77.0136
621 207 5 -0.834 4.47098 0.654233 77.3944
622 208 2 0.417 16.6738 10.704 80.754
623 208 2 0.417 16.6741 10.1932 79.4338
624 208 5 -0.834 16.093 10.7468 79.9615
625 209 2 0.417 13.5052 0.77876 52.2663
626 209 2 0.417 13.6048 1.4038 53.5378
627 209 5 -0.834 13.7931 0.515863 53.1853
628 210 2 0.417 1.54074 20.9524 87.3599
629 210 2 0.417 0.899193 19.7824 86.6671
630 210 5 -0.834 0.734375 20.7304 86.782
631 211 2 0.417 7.68807 4.54581 0.99275
632 211 2 0.417 8.18476 5.81207 1.67725
633 211 5 -0.834 7.34394 5.35338 1.40603
634 212 2 0.417 3.42784 9.38692 58.4219
635 212 2 0.417 2.11033 8.73779 58.8992
636 212 5 -0.834 2.50165 9.59354 58.6735
637 213 2 0.417 11.0679 9.74176 25.4715
638 213 2 0.417 11.2841 10.7073 24.2091
639 213 5 -0.834 10.8566 9.90518 24.5103
640 214 2 0.417 8.22944 16.9861 89.4601
641 214 2 0.417 7.38475 17.8721 88.6319
642 214 5 -0.834 8.31933 17.7469 88.8508
643 215 2 0.417 15.5265 3.98135 93.3352
644 215 2 0.417 16.6917 3.86129 94.3284
645 215 5 -0.834 16.4706 4.21041 93.5039
646 216 2 0.417 7.5092 15.5087 75.9849
647 216 2 0.417 8.11249 16.7355 76.2767
648 216 5 -0.834 7.9235 16.1587 75.455
649 217 2 0.417 17.8218 11.9259 69.6305
650 217 2 0.417 18.1098 10.6553 70.4623
651 217 5 -0.834 17.7854 11.0124 69.6268
652 218 2 0.417 6.53524 3.9706 59.7887
653 218 2 0.417 5.4642 3.86311 58.6539
654 218 5 -0.834 5.91948 4.47455 59.1888
655 219 2 0.417 19.2265 2.12447 41.2878
656 219 2 0.417 19.5254 2.19393 39.8996
657 219 5 -0.834 18.8325 1.99197 40.437
658 220 2 0.417 10.9117 4.97864 92.8881
659 220 2 0.417 10.6209 3.64227 92.7929
660 220 5 -0.834 11.4499 4.13876 92.8739
661 221 2 0.417 14.5148 2.61939 38.0224
662 221 2 0.417 14.9494 1.96038 39.3263
663 221 5 -0.834 15.3413 2.453 38.5387
664 222 2 0.417 4.15156 6.8695 54.2539
665 222 2 0.417 5.13444 7.7095 53.4919
666 222 5 -0.834 4.74984 6.80479 53.5033
667 223 2 0.417 11.4975 20.5812 4.89338
668 223 2 0.417 12.1745 21.725 4.26065
669 223 5 -0.834 11.2918 21.4761 4.73142
670 224 2 0.417 3.95141 16.0538 55.8616
671 224 2 0.417 4.01048 17.5877 55.5568
672 224 5 -0.834 4.4317 16.7279 55.3139
673 225 2 0.417 17.3483 17.2175 42.0831
674 225 2 0.417 17.8722 16.1503 41.1486
675 225 5 -0.834 18.1568 16.9385 41.6499
676 226 2 0.417 4.77225 6.39511 105.104
677 226 2 0.417 5.18004 6.02886 1.12409
678 226 5 -0.834 4.393 6.19973 0.576399
679 227 2 0.417 20.9153 15.6237 50.7192
680 227 2 0.417 22.3087 15.235 50.5641
681 227 5 -0.834 21.4577 15.241 50.0189
682 228 2 0.417 6.46551 1.57868 70.8806
683 228 2 0.417 7.74082 1.72591 71.8601
684 228 5 -0.834 7.43816 1.33882 70.9931
685 229 2 0.417 10.245 6.55178 37.1155
686 229 2 0.417 11.1827 5.95666 36.4168
687 229 5 -0.834 10.2747 6.21524 36.2378
688 230 2 0.417 3.39319 2.97146 75.6415
689 230 2 0.417 3.76075 3.77677 76.8273
690 230 5 -0.834 4.21167 3.1118 76.1892
691 231 2 0.417 13.0581 16.5156 50.8932
692 231 2 0.417 12.9919 15.1826 50.0282
693 231 5 -0.834 13.4899 16.0247 50.1153
694 232 2 0.417 9.71037 20.8041 34.0349
695 232 2 0.417 9.77818 21.7582 32.8303
696 232 5 -0.834 9.14881 21.2707 33.3518
697 233 2 0.417 14.0052 18.948 59.8359
698 233 2 0.417 13.2296 20.1851 60.1411
699 233 5 -0.834 13.6848 19.749 59.4156
700 234 2 0.417 9.06966 20.8545 80.1996
701 234 2 0.417 9.00308 19.4071 80.2286
702 234 5 -0.834 8.87338 20.1304 79.6335
703 235 2 0.417 5.46552 10.1102 80.3597
704 235 2 0.417 4.52135 11.2511 80.5387
705 235 5 -0.834 5.09595 10.8946 79.8795
706 236 2 0.417 23.445 17.6076 45.3058
707 236 2 0.417 22.6081 17.3742 46.5315
708 236 5 -0.834 22.7894 18.0984 45.9088
709 237 2 0.417 8.98302 19.2253 10.0383
710 237 2 0.417 8.09507 20.4666 9.95182
711 237 5 -0.834 8.19253 19.6101 10.4681
712 238 2 0.417 4.66 7.2783 79.209
713 238 2 0.417 5.06642 6.04264 79.9867
714 238 5 -0.834 4.29773 6.49391 79.6263
715 239 2 0.417 5.23472 21.2742 85.518
716 239 2 0.417 5.09904 22.1118 86.7457
717 239 5 -0.834 4.5394 21.5127 86.176
718 240 2 0.417 1.82869 16.4797 53.0626
719 240 2 0.417 0.53177 17.0325 53.7871
720 240 5 -0.834 0.787765 16.3174 53.1471
721 241 2 0.417 23.6988 1.51476 71.1896
722 241 2 0.417 0.466995 0.288986 70.7893
723 241 5 -0.834 23.5764 0.649401 70.6709
724 242 2 0.417 8.76847 5.43048 53.0126
725 242 2 0.417 8.49351 6.93767 53.2638
726 242 5 -0.834 8.21093 6.18917 52.7189
727 243 2 0.417 21.2592 1.86908 67.4909
728 243 2 0.417 20.9019 2.38395 66.1593
729 243 5 -0.834 20.7452 2.64316 67.1256
730 244 2 0.417 8.2473 12.2565 80.4509
731 244 2 0.417 8.94329 13.5064 80.8595
732 244 5 -0.834 8.09888 13.0157 81.0237
733 245 2 0.417 1.80656 8.61177 34.2865
734 245 2 0.417 2.35397 7.70962 35.3478
735 245 5 -0.834 2.65341 8.43243 34.7371
736 246 2 0.417 15.1919 21.8708 84.9661
737 246 2 0.417 13.7223 21.228 84.5937
738 246 5 -0.834 14.1959 22.0573 84.9217
739 247 2 0.417 15.8394 8.87453 42.3137
740 247 2 0.417 15.7697 7.42064 42.5317
741 247 5 -0.834 16.3964 8.1486 42.5557
742 248 2 0.417 13.4069 7.59343 37.7482
743 248 2 0.417 14.5418 7.21725 36.786
744 248 5 -0.834 13.8267 7.87975 36.8969
745 249 2 0.417 19.1102 17.6404 85.783
746 249 2 0.417 17.9653 18.4137 86.249
747 249 5 -0.834 18.3776 18.1657 85.3819
748 250 2 0.417 16.072 9.86205 53.6024
749 250 2 0.417 15.7034 11.3163 53.9768
750 250 5 -0.834 15.557 10.6184 53.2768
751 251 2 0.417 12.3484 11.0468 48.8344
752 251 2 0.417 13.6354 10.6082 49.1042
753 251 5 -0.834 12.7825 10.3597 49.4106