ITEM: TIMESTEP
4500000
ITEM: NUMBER OF ATOMS
5487
ITEM: BOX BOUNDS pp pp pp
2.4900000000000000e-01 2.4248999999999999e+01
2.5950000000000001e-01 2.4259499999999999e+01
0.0000000000000000e+00 1.0536952658408562e+02
ITEM: ATOMS id mol type q x y z
1 1 2 0.417 12.2782 10.7957 37.5736
2 1 2 0.417 13.6815 10.5752 37.7029
3 1 5 -0.834 12.9908 10.571 36.957
4 2 2 0.417 19.7117 16.5932 37.2673
5 2 2 0.417 20.1179 17.9841 37.5246
6 2 5 -0.834 20.1895 17.3028 36.8376
7 3 2 0.417 8.41239 11.2366 68.0284
8 3 2 0.417 9.13005 9.96148 68.3425
9 3 5 -0.834 9.14708 10.7109 67.6893
10 4 2 0.417 10.3151 1.05601 91.2477
11 4 2 0.417 10.7421 24.2433 92.4589
12 4 5 -0.834 10.2227 24.1442 91.6111
13 5 2 0.417 12.3877 20.3941 82.3342
14 5 2 0.417 11.4934 21.0344 81.3603
15 5 5 -0.834 11.7569 20.1437 81.6355
16 6 2 0.417 16.9796 7.16255 95.1225
17 6 2 0.417 16.1617 6.55479 96.154
18 6 5 -0.834 16.1912 7.36687 95.6511
19 7 2 0.417 16.0767 3.13314 55.3904
20 7 2 0.417 16.6896 3.58014 56.6237
21 7 5 -0.834 16.8494 3.5951 55.7122
22 8 2 0.417 23.7238 18.1901 56.3164
23 8 2 0.417 23.8708 18.5478 57.7046
24 8 5 -0.834 23.6205 17.8313 57.221
25 9 2 0.417 21.5047 11.7893 8.6336
26 9 2 0.417 22.1198 10.5009 8.24634
27 9 5 -0.834 22.1499 11.1777 8.96062
28 10 2 0.417 21.6929 8.50119 71.4317
29 10 2 0.417 22.0488 7.14605 71.9436
30 10 5 -0.834 22.0882 7.64651 71.1294
31 11 2 0.417 23.6353 3.76768 68.5684
32 11 2 0.417 23.9373 5.073 69.4285
33 11 5 -0.834 23.8767 4.07859 69.4746
34 12 2 0.417 14.9384 12.3297 82.2218
35 12 2 0.417 14.3264 13.4239 81.3727
36 12 5 -0.834 15.2042 13.0644 81.6555
37 13 2 0.417 22.9378 7.05559 69.9147
38 13 2 0.417 23.9274 7.51953 68.7918
39 13 5 -0.834 23.5768 6.68943 69.2396
40 14 2 0.417 12.5631 23.8639 87.9935
41 14 2 0.417 13.8863 23.0861 88.0264
42 14 5 -0.834 12.9367 22.989 88.2046
43 15 2 0.417 9.63451 17.0396 5.93485
44 15 2 0.417 8.85605 18.2921 5.88776
45 15 5 -0.834 9.15347 17.6121 6.50983
46 16 2 0.417 2.42089 18.7921 86.6817
47 16 2 0.417 0.889543 18.803 86.7705
48 16 5 -0.834 1.65309 18.1485 86.6998
49 17 2 0.417 7.46478 17.6096 83.7754
50 17 2 0.417 7.83061 16.7723 82.614
51 17 5 -0.834 8.14401 17.6279 83.0633
52 18 2 0.417 1.46076 15.8385 74.3342
53 18 2 0.417 24.0487 15.6141 74.7699
54 18 5 -0.834 0.769738 16.2563 74.9492
55 19 2 0.417 20.8505 18.1402 48.0175
56 19 2 0.417 20.8159 19.2503 46.8882
57 19 5 -0.834 20.5514 18.3177 47.0712
58 20 2 0.417 14.9434 4.60238 91.2769
59 20 2 0.417 15.6488 3.59827 90.4738
60 20 5 -0.834 15.2136 4.43867 90.3424
61 21 2 0.417 4.58715 5.89152 88.2772
62 21 2 0.417 4.9968 7.14705 88.9738
63 21 5 -0.834 5.40253 6.41687 88.4902
64 22 2 0.417 3.83902 3.6464 64.2799
65 22 2 0.417 2.92731 3.3605 62.996
66 22 5 -0.834 3.8514 3.54777 63.267
67 23 2 0.417 0.460592 21.0321 45.5991
68 23 2 0.417 0.916563 20.1378 44.5562
69 23 5 -0.834 24.1901 20.7059 44.7508
70 24 2 0.417 4.1681 22.3825 53.8378
71 24 2 0.417 2.76303 22.7027 53.3663
72 24 5 -0.834 3.23687 22.0939 53.9441
73 25 2 0.417 7.65785 5.81163 47.8225
74 25 2 0.417 7.29215 4.59899 46.9661
75 25 5 -0.834 7.1335 5.60929 46.9872
76 26 2 0.417 10.5009 4.32117 47.5098
77 26 2 0.417 11.7204 3.53166 47.4301
78 26 5 -0.834 10.974 3.73777 46.9069
79 27 2 0.417 2.58129 21.3184 66.1738
80 27 2 0.417 1.22863 21.444 65.3425
81 27 5 -0.834 2.14166 21.7637 65.3477
82 28 2 0.417 14.2192 11.5271 45.4421
83 28 2 0.417 13.5478 12.678 45.0157
84 28 5 -0.834 14.3317 12.1931 44.7454
85 29 2 0.417 5.73723 5.6833 60.9105
86 29 2 0.417 5.72832 5.36201 59.4484
87 29 5 -0.834 6.3301 5.40571 60.1979
88 30 2 0.417 10.8188 19.4343 38.8719
89 30 2 0.417 11.1944 18.2508 38.0858
90 30 5 -0.834 10.5014 18.9234 38.1241
91 31 2 0.417 14.795 2.94786 18.8599
92 31 2 0.417 14.7152 1.39768 18.6525
93 31 5 -0.834 14.6313 2.11808 19.3676
94 32 2 0.417 15.6094 7.40034 84.9389
95 32 2 0.417 15.5575 8.75309 85.7408
96 32 5 -0.834 15.737 8.37205 84.8618
97 33 2 0.417 23.5639 17.0369 71.2255
98 33 2 0.417 23.8009 16.4953 72.5551
99 33 5 -0.834 24.2469 16.9713 71.885
100 34 2 0.417 2.0249 11.4251 38.3803
101 34 2 0.417 2.61066 12.8379 38.0478
102 34 5 -0.834 1.90224 12.209 37.7488
103 35 2 0.417 16.2652 20.1076 88.352
104 35 2 0.417 17.4106 20.1494 87.5926
105 35 5 -0.834 16.5032 20.0329 87.4032
106 36 2 0.417 22.8633 6.04184 36.2553
107 36 2 0.417 23.8969 5.14412 36.8019
108 36 5 -0.834 23.1717 5.72325 37.1144
109 37 2 0.417 12.5906 22.1632 74.497
110 37 2 0.417 12.7307 21.406 73.1839
111 37 5 -0.834 12.9825 22.2717 73.6143
112 38 2 0.417 6.734 18.4711 81.9958
113 38 2 0.417 7.35583 19.8127 82.0689
114 38 5 -0.834 6.58852 19.3484 81.6205
115 39 2 0.417 10.5579 5.66733 90.9765
116 39 2 0.417 11.7601 6.30406 90.1893
117 39 5 -0.834 11.0776 5.58677 90.1572
118 40 2 0.417 14.0798 23.2604 9.09112
119 40 2 0.417 12.7218 23.6385 9.76852
120 40 5 -0.834 13.1707 22.9227 9.26539
121 41 2 0.417 1.37363 9.44673 86.5365
122 41 2 0.417 1.60059 9.35109 85.0754
123 41 5 -0.834 1.00436 9.76282 85.6954
124 42 2 0.417 14.1459 7.74495 92.9027
125 42 2 0.417 15.0422 7.11325 93.8902
126 42 5 -0.834 14.4772 6.87452 93.1567
127 43 2 0.417 23.9877 16.6857 76.9565
128 43 2 0.417 22.7847 17.3731 77.7264
129 43 5 -0.834 23.764 17.2636 77.6783
130 44 2 0.417 22.929 18.9138 22.0011
131 44 2 0.417 23.7722 20.0912 21.4768
132 44 5 -0.834 23.6585 19.5002 22.2814
133 45 2 0.417 3.96533 11.7486 87.3708
134 45 2 0.417 2.70612 11.8949 86.6705
135 45 5 -0.834 3.47118 11.2968 86.6571
136 46 2 0.417 7.62982 2.86475 54.8727
137 46 2 0.417 7.88165 4.32867 55.1909
138 46 5 -0.834 8.27504 3.56672 54.695
139 47 2 0.417 2.46833 22.3387 85.6984
140 47 2 0.417 1.10943 21.6861 85.2688
141 47 5 -0.834 1.56203 22.5481 85.2911
142 48 2 0.417 10.9 23.9041 50.2196
143 48 2 0.417 11.1407 24.0549 48.6574
144 48 5 -0.834 11.2664 23.4069 49.4012
145 49 2 0.417 7.35232 23.5398 57.0853
146 49 2 0.417 8.45787 23.8194 58.0943
147 49 5 -0.834 8.2919 23.4723 57.224
148 50 2 0.417 2.39276 3.20321 22.7674
149 50 2 0.417 3.21242 4.35929 22.3461
150 50 5 -0.834 2.35887 4.16802 22.6594
151 51 2 0.417 19.1428 15.5976 54.6637
152 51 2 0.417 17.8726 15.2861 53.9652
153 51 5 -0.834 18.4492 16.1021 54.1798
154 52 2 0.417 22.5087 8.22633 88.1535
155 52 2 0.417 21.623 7.22972 87.2921
156 52 5 -0.834 22.5026 7.35126 87.636
157 53 2 0.417 8.04747 4.28311 105.165
158 53 2 0.417 7.15254 3.63106 0.788392
159 53 5 -0.834 7.1516 4.35093 0.111193
160 54 2 0.417 3.59712 7.17011 58.8895
161 54 2 0.417 2.1526 6.77496 58.4713
162 54 5 -0.834 3.01071 6.37983 58.8792
163 55 2 0.417 22.4849 3.68523 36.0176
164 55 2 0.417 21.189 3.52663 36.7967
165 55 5 -0.834 21.6019 3.26916 35.96
166 56 2 0.417 9.97909 2.28399 87.6795
167 56 2 0.417 9.6105 1.82533 86.3937
168 56 5 -0.834 10.283 2.34431 86.8254
169 57 2 0.417 0.485929 2.43909 39.2997
170 57 2 0.417 1.44329 1.2687 39.6936
171 57 5 -0.834 0.816218 1.57343 38.9646
172 58 2 0.417 6.1938 22.504 72.1707
173 58 2 0.417 7.676 22.8506 71.8329
174 58 5 -0.834 6.81079 22.5515 71.3869
175 59 2 0.417 12.1462 5.89311 60.1822
176 59 2 0.417 13.3272 6.57822 59.7844
177 59 5 -0.834 12.4217 6.83047 60.1533
178 60 2 0.417 13.5038 23.0498 79.9555
179 60 2 0.417 12.0665 22.7463 79.5625
180 60 5 -0.834 12.8803 23.0069 79.0865
181 61 2 0.417 1.15791 2.41236 53.3197
182 61 2 0.417 0.728346 0.918207 52.9924
183 61 5 -0.834 1.03784 1.7186 52.6386
184 62 2 0.417 20.5769 7.07367 45.9637
185 62 2 0.417 21.5259 6.22323 46.7951
186 62 5 -0.834 21.0859 6.23294 45.9505
187 63 2 0.417 16.6635 20.8879 59.3783
188 63 2 0.417 17.7642 21.4443 60.0974
189 63 5 -0.834 17.3556 21.448 59.2362
190 64 2 0.417 12.8807 6.11862 92.876
191 64 2 0.417 11.4066 5.66866 92.6369
192 64 5 -0.834 12.2717 5.29263 92.8823
193 65 2 0.417 10.6082 16.1793 35.5128
194 65 2 0.417 9.50222 17.076 35.3731
195 65 5 -0.834 9.66171 16.1067 35.3028
196 66 2 0.417 5.17798 0.270548 74.3271
197 66 2 0.417 6.14766 0.955983 75.2266
198 66 5 -0.834 5.25581 1.09737 74.7978
199 67 2 0.417 12.6313 14.4835 65.5368
200 67 2 0.417 11.2601 13.9674 65.2499
201 67 5 -0.834 12.147 14.0996 64.8028
202 68 2 0.417 11.9005 9.5888 65.886
203 68 2 0.417 11.9856 8.47171 64.95
204 68 5 -0.834 11.4082 8.76454 65.6284
205 69 2 0.417 5.07765 5.90917 41.2122
206 69 2 0.417 3.93634 6.4238 42.1311
207 69 5 -0.834 4.73933 6.68435 41.5533
208 70 2 0.417 23.9888 14.1172 79.5015
209 70 2 0.417 24.0003 13.2459 80.7225
210 70 5 -0.834 0.671205 13.5642 80.0471
211 71 2 0.417 17.1869 20.591 67.3261
212 71 2 0.417 17.3617 19.8034 68.6871
213 71 5 -0.834 17.3408 19.6993 67.6768
214 72 2 0.417 19.7808 9.45551 35.5348
215 72 2 0.417 19.4479 10.8336 36.1218
216 72 5 -0.834 20.1844 10.2535 35.8998
217 73 2 0.417 16.6474 14.0195 77.4562
218 73 2 0.417 17.1616 12.8812 78.2286
219 73 5 -0.834 17.4638 13.4727 77.5179
220 74 2 0.417 14.7907 14.9197 82.8892
221 74 2 0.417 14.245 14.8705 84.2677
222 74 5 -0.834 14.8765 15.3528 83.7441
223 75 2 0.417 2.17936 0.379762 105.069
224 75 2 0.417 1.3074 23.6882 0.814325
225 75 5 -0.834 2.22097 24.0594 0.618855
226 76 2 0.417 13.1472 19.7329 80.3967
227 76 2 0.417 14.4679 19.0691 80.0592
228 76 5 -0.834 13.8878 19.8227 79.8269
229 77 2 0.417 15.1633 17.759 4.58642
230 77 2 0.417 15.3694 16.7228 5.70772
231 77 5 -0.834 14.7631 17.4516 5.38837
232 78 2 0.417 18.8461 5.87863 66.1553
233 78 2 0.417 18.5401 4.89061 65.0469
234 78 5 -0.834 18.1107 5.6256 65.5692
235 79 2 0.417 14.2122 21.462 36.1176
236 79 2 0.417 14.8328 20.0721 35.8634
237 79 5 -0.834 15.0514 21.0271 35.8522
238 80 2 0.417 15.41 3.86337 68.7118
239 80 2 0.417 15.4027 3.03398 69.8724
240 80 5 -0.834 14.7536 3.41211 69.2893
241 81 2 0.417 1.712 10.8943 57.9747
242 81 2 0.417 2.30527 11.821 57.0185
243 81 5 -0.834 1.93859 10.9324 57.051
244 82 2 0.417 11.0524 19.981 10.6896
245 82 2 0.417 10.5624 18.5842 10.4411
246 82 5 -0.834 10.2921 19.4253 10.9263
247 83 2 0.417 21.4355 10.497 61.3792
248 83 2 0.417 20.2222 11.2582 61.0077
249 83 5 -0.834 20.4997 10.365 61.114
250 84 2 0.417 19.9072 22.0713 57.4143
251 84 2 0.417 19.0115 21.4285 58.3611
252 84 5 -0.834 19.9688 21.395 58.105
253 85 2 0.417 23.9356 16.1056 57.4142
254 85 2 0.417 1.02686 15.164 57.4388
255 85 5 -0.834 24.1087 15.1987 57.6695
256 86 2 0.417 22.1257 8.63921 85.578
257 86 2 0.417 23.3593 9.18392 85.1873
258 86 5 -0.834 22.633 8.7211 84.7415
259 87 2 0.417 21.7654 15.8625 60.5977
260 87 2 0.417 20.4992 15.2883 61.0465
261 87 5 -0.834 21.3027 15.6956 61.4278
262 88 2 0.417 17.5779 16.2172 76.3713
263 88 2 0.417 16.3939 16.9632 76.9959
264 88 5 -0.834 17.3848 16.7862 77.1318
265 89 2 0.417 12.3121 19.3079 49.4344
266 89 2 0.417 12.909 17.9504 49.8496
267 89 5 -0.834 12.2597 18.3308 49.2243
268 90 2 0.417 2.12223 16.5849 55.331
269 90 2 0.417 2.49485 15.1154 55.5043
270 90 5 -0.834 1.91199 15.7266 54.9483
271 91 2 0.417 7.29774 8.91363 73.6755
272 91 2 0.417 5.91301 8.8177 74.4288
273 91 5 -0.834 6.46664 8.39473 73.6838
274 92 2 0.417 21.5318 18.7464 61.1957
275 92 2 0.417 22.2496 17.6267 61.709
276 92 5 -0.834 22.2105 18.5946 61.8519
277 93 2 0.417 21.2968 8.86157 79.0012
278 93 2 0.417 21.2123 7.57453 78.3437
279 93 5 -0.834 21.3118 8.4986 78.0799
280 94 2 0.417 15.144 9.61897 78.2691
281 94 2 0.417 15.7106 9.07645 79.5192
282 94 5 -0.834 14.8303 9.1336 79.0181
283 95 2 0.417 9.09782 2.0133 35.834
284 95 2 0.417 7.92937 2.76395 36.2937
285 95 5 -0.834 8.7755 2.92134 35.8536
286 96 2 0.417 16.175 19.203 60.723
287 96 2 0.417 15.3965 20.3161 61.3347
288 96 5 -0.834 15.3766 19.723 60.5204
289 97 2 0.417 16.7459 23.8165 74.5124
290 97 2 0.417 15.2911 23.5557 74.5256
291 97 5 -0.834 16.1059 23.1285 74.6415
292 98 2 0.417 4.82815 19.2261 58.5979
293 98 2 0.417 5.92109 18.8006 57.7177
294 98 5 -0.834 4.95582 18.8856 57.7591
295 99 2 0.417 17.8847 18.6645 46.4219
296 99 2 0.417 18.9788 17.7106 46.674
297 99 5 -0.834 18.0158 17.6722 46.4416
298 100 2 0.417 4.71165 18.2091 70.1739
299 100 2 0.417 3.40654 18.9059 70.4127
300 100 5 -0.834 4.18843 18.8923 69.78
301 101 2 0.417 20.7879 6.06913 10.5106
302 101 2 0.417 20.5906 4.80793 11.1581
303 101 5 -0.834 20.105 5.40191 10.6072
304 102 2 0.417 13.9768 6.06571 45.7834
305 102 2 0.417 15.3808 5.82096 46.0116
306 102 5 -0.834 14.6702 5.44059 45.4087
307 103 2 0.417 14.4762 15.3766 60.8319
308 103 2 0.417 15.3014 16.5622 60.588
309 103 5 -0.834 14.4649 16.1955 60.3551
310 104 2 0.417 6.33506 15.3343 77.7425
311 104 2 0.417 6.22371 13.8384 77.6218
312 104 5 -0.834 6.45496 14.6735 77.0978
313 105 2 0.417 5.82058 22.8015 58.4382
314 105 2 0.417 4.77869 23.0453 57.2971
315 105 5 -0.834 5.63345 23.2971 57.5774
316 106 2 0.417 2.81639 23.6008 40.617
317 106 2 0.417 3.52384 0.795617 40.0272
318 106 5 -0.834 2.70985 0.592804 40.4842
319 107 2 0.417 8.66331 13.5334 97.2328
320 107 2 0.417 7.39588 12.9634 96.7557
321 107 5 -0.834 7.93451 12.9688 97.5837
322 108 2 0.417 4.7621 15.7916 86.8587
323 108 2 0.417 5.20421 15.7147 88.2901
324 108 5 -0.834 5.52737 15.7462 87.4393
325 109 2 0.417 20.5024 4.78964 58.4515
326 109 2 0.417 21.6417 5.75081 58.6411
327 109 5 -0.834 20.6712 5.75461 58.6447
328 110 2 0.417 22.9983 0.730478 0.0618659
329 110 2 0.417 22.1088 1.85195 105.169
330 110 5 -0.834 22.9075 1.45624 104.767
331 111 2 0.417 13.3323 2.62468 45.0626
332 111 2 0.417 14.2595 3.57088 45.8784
333 111 5 -0.834 14.0073 2.66911 45.7258
334 112 2 0.417 14.8335 16.3045 45.7688
335 112 2 0.417 15.2477 17.2108 44.7111
336 112 5 -0.834 14.9022 16.2743 44.7987
337 113 2 0.417 10.764 17.0465 44.7986
338 113 2 0.417 11.7483 17.3044 45.6824
339 113 5 -0.834 11.2714 17.787 44.9768
340 114 2 0.417 17.7672 12.1901 89.784
341 114 2 0.417 18.3857 13.1644 88.9368
342 114 5 -0.834 17.9018 13.1618 89.8102
343 115 2 0.417 9.46824 3.74187 57.8291
344 115 2 0.417 8.73037 2.65229 58.4423
345 115 5 -0.834 9.53784 2.80607 57.9853
346 116 2 0.417 17.8556 13.5589 48.4869
347 116 2 0.417 18.0493 13.7099 49.921
348 116 5 -0.834 17.7357 13.0069 49.2976
349 117 2 0.417 1.05935 1.09498 102.869
350 117 2 0.417 0.444718 1.58621 104.212
351 117 5 -0.834 1.34533 1.50126 103.726
352 118 2 0.417 1.77136 2.42187 30.4984
353 118 2 0.417 2.92331 1.63146 30.9595
354 118 5 -0.834 2.05703 1.9551 31.287
355 119 2 0.417 6.84945 3.02239 88.7656
356 119 2 0.417 7.45051 1.73687 88.3398
357 119 5 -0.834 7.116 2.54586 87.9491
358 120 2 0.417 21.4914 22.9234 75.7232
359 120 2 0.417 21.1969 21.8252 76.7856
360 120 5 -0.834 21.2196 22.0011 75.7782
361 121 2 0.417 3.59594 12.9823 81.2063
362 121 2 0.417 2.34497 13.1803 80.3026
363 121 5 -0.834 3.28444 13.0091 80.271
364 122 2 0.417 17.4562 15.4529 91.6229
365 122 2 0.417 18.2359 14.268 91.2025
366 122 5 -0.834 18.0764 14.7799 92.0336
367 123 2 0.417 24.1618 10.8565 92.2764
368 123 2 0.417 0.369864 9.48427 91.6214
369 123 5 -0.834 0.3975 10.4556 91.4123
370 124 2 0.417 20.8107 14.2368 64.258
371 124 2 0.417 21.0662 15.4569 63.3389
372 124 5 -0.834 20.7992 15.2245 64.2521
373 125 2 0.417 10.7206 12.9811 37.5736
374 125 2 0.417 11.1902 14.2211 36.8165
375 125 5 -0.834 10.5841 13.511 36.7423
376 126 2 0.417 24.1745 3.5812 78.9822
377 126 2 0.417 0.671986 5.00502 79.0907
378 126 5 -0.834 24.0668 4.4568 78.5908
379 127 2 0.417 0.904774 22.6824 68.8148
380 127 2 0.417 24.0007 21.6132 68.6029
381 127 5 -0.834 0.331002 22.3774 68.1059
382 128 2 0.417 0.29559 13.1571 68.2345
383 128 2 0.417 1.45556 14.1473 68.1902
384 128 5 -0.834 0.759029 13.8523 68.778
385 129 2 0.417 5.34376 9.10111 88.0781
386 129 2 0.417 4.99881 9.98355 86.9233
387 129 5 -0.834 5.5861 9.27125 87.1651
388 130 2 0.417 15.2461 5.44746 54.8768
389 130 2 0.417 15.2307 6.66467 55.8243
390 130 5 -0.834 15.7481 6.22869 55.1668
391 131 2 0.417 0.601258 8.56122 42.0028
392 131 2 0.417 23.1546 8.54438 42.3213
393 131 5 -0.834 23.7604 8.07674 41.7425
394 132 2 0.417 16.7521 16.8833 66.6615
395 132 2 0.417 17.1645 18.2262 66.7815
396 132 5 -0.834 17.113 17.5413 66.0922
397 133 2 0.417 10.7485 1.83649 82.0255
398 133 2 0.417 12.0804 1.83532 82.8182
399 133 5 -0.834 11.5438 1.25767 82.209
400 134 2 0.417 21.7714 11.0804 49.3298
401 134 2 0.417 21.5867 12.1149 48.3575
402 134 5 -0.834 21.93 11.2539 48.4326
403 135 2 0.417 3.99785 16.1308 96.9607
404 135 2 0.417 5.12389 17.1271 97.123
405 135 5 -0.834 4.24251 17.0732 96.7743
406 136 2 0.417 8.89527 5.6327 89.6509
407 136 2 0.417 8.5648 5.56702 91.067
408 136 5 -0.834 8.11638 5.66016 90.1715
409 137 2 0.417 17.7125 6.22874 61.0771
410 137 2 0.417 17.2003 4.78652 60.8433
411 137 5 -0.834 17.1867 5.72535 60.4788
412 138 2 0.417 21.1543 20.1138 79.1812
413 138 2 0.417 20.4439 20.1278 77.8757
414 138 5 -0.834 21.1081 20.7158 78.3527
415 139 2 0.417 14.1284 15.1983 76.8683
416 139 2 0.417 14.371 14.2725 78.0039
417 139 5 -0.834 14.4438 14.2771 77.0251
418 140 2 0.417 4.93946 9.80336 98.0168
419 140 2 0.417 6.23811 10.5508 98.0393
420 140 5 -0.834 5.67976 10.0453 98.6272
421 141 2 0.417 3.91971 9.17156 78.762
422 141 2 0.417 4.54429 10.3846 79.1329
423 141 5 -0.834 4.13224 9.99481 78.3827
424 142 2 0.417 5.48714 0.502111 38.3856
425 142 2 0.417 4.14799 0.334965 37.5481
426 142 5 -0.834 4.60829 23.9694 38.3444
427 143 2 0.417 10.071 17.0795 77.0781
428 143 2 0.417 11.2459 16.4079 76.4894
429 143 5 -0.834 10.9634 17.3309 76.8748
430 144 2 0.417 13.9732 24.1026 50.1038
431 144 2 0.417 13.4091 23.3507 48.925
432 144 5 -0.834 14.2363 23.4046 49.4909
433 145 2 0.417 10.302 23.2196 84.006
434 145 2 0.417 10.5659 23.9178 82.6425
435 145 5 -0.834 9.92369 23.3556 83.0973
436 146 2 0.417 8.47702 0.774267 7.80217
437 146 2 0.417 9.99463 0.73025 7.9502
438 146 5 -0.834 9.21985 1.29533 8.21556
439 147 2 0.417 4.35838 5.30294 57.8339
440 147 2 0.417 4.87553 3.92826 57.6546
441 147 5 -0.834 5.19393 4.84108 57.6922
442 148 2 0.417 16.9372 18.262 55.5985
443 148 2 0.417 18.0841 17.578 54.7666
444 148 5 -0.834 17.7978 18.4714 55.1613
445 149 2 0.417 8.73018 22.818 3.89937
446 149 2 0.417 7.38749 22.8221 3.22033
447 149 5 -0.834 7.77008 22.5929 4.09137
448 150 2 0.417 10.285 3.17165 77.5017
449 150 2 0.417 10.734 3.87484 78.821
450 150 5 -0.834 11.0348 3.41443 78.0004
451 151 2 0.417 21.2159 21.5524 55.1202
452 151 2 0.417 20.4377 20.7115 54.0446
453 151 5 -0.834 21.2423 20.6982 54.6359
454 152 2 0.417 2.79105 2.78955 7.03065
455 152 2 0.417 2.68427 1.50191 6.2168
456 152 5 -0.834 2.23707 1.98592 6.9215
457 153 2 0.417 23.9312 11.3693 40.7414
458 153 2 0.417 23.2655 11.9281 41.8426
459 153 5 -0.834 24.0145 12.1355 41.2944
460 154 2 0.417 4.41733 13.9336 36.105
461 154 2 0.417 4.07177 12.8387 36.9549
462 154 5 -0.834 4.55317 12.9887 36.1974
463 155 2 0.417 7.88106 3.72996 76.7177
464 155 2 0.417 8.81363 4.1871 75.7193
465 155 5 -0.834 8.776 3.55136 76.4223
466 156 2 0.417 0.900706 6.95294 29.07
467 156 2 0.417 0.548751 7.28866 27.5644
468 156 5 -0.834 24.1716 7.01281 28.4031
469 157 2 0.417 19.7103 16.4019 84.7366
470 157 2 0.417 18.3452 16.8015 84.9725
471 157 5 -0.834 18.9436 16.5694 84.2287
472 158 2 0.417 9.70285 0.686724 67.0334
473 158 2 0.417 8.39678 1.50702 67.0452
474 158 5 -0.834 9.33744 1.60353 66.7479
475 159 2 0.417 10.4499 22.1474 34.1565
476 159 2 0.417 10.8665 23.707 33.8306
477 159 5 -0.834 10.6879 23.0363 34.5617
478 160 2 0.417 19.0057 17.1719 52.8289
479 160 2 0.417 18.2167 17.8702 51.838
480 160 5 -0.834 19.0919 17.4467 51.9077
481 161 2 0.417 14.8188 16.0966 79.8077
482 161 2 0.417 13.5507 15.3299 80.1959
483 161 5 -0.834 13.9861 15.7421 79.412
484 162 2 0.417 19.9189 7.18124 85.5504
485 162 2 0.417 19.2461 8.21187 86.3779
486 162 5 -0.834 20.0712 7.62442 86.4292
487 163 2 0.417 15.0663 5.33643 58.2638
488 163 2 0.417 15.7006 6.07953 59.3161
489 163 5 -0.834 14.7457 5.95357 58.9223
490 164 2 0.417 22.3143 0.462803 74.6529
491 164 2 0.417 22.9761 0.912439 75.9552
492 164 5 -0.834 22.1507 0.492941 75.6426
493 165 2 0.417 16.3018 14.135 61.9732
494 165 2 0.417 17.1411 13.4558 62.9569
495 165 5 -0.834 17.2186 14.1487 62.266
496 166 2 0.417 2.30943 22.6864 2.17667
497 166 2 0.417 3.58981 22.8443 2.91607
498 166 5 -0.834 2.70142 22.5903 3.06738
499 167 2 0.417 10.1612 20.1531 55.5197
500 167 2 0.417 9.10756 19.5904 54.5293
501 167 5 -0.834 10.1305 19.531 54.7933
502 168 2 0.417 18.1431 21.3421 42.4275
503 168 2 0.417 18.3012 19.889 41.9141
504 168 5 -0.834 18.1273 20.8093 41.6009
505 169 2 0.417 9.00815 8.9217 20.6409
506 169 2 0.417 9.76605 10.0578 20.1506
507 169 5 -0.834 9.28949 9.80227 20.9595
508 170 2 0.417 8.26753 1.08543 71.1223
509 170 2 0.417 8.93272 0.714784 69.902
510 170 5 -0.834 8.09368 1.09348 70.1549
511 171 2 0.417 5.42656 17.1926 75.184
512 171 2 0.417 6.88731 17.2211 75.5872
513 171 5 -0.834 6.35952 17.1512 74.7876
514 172 2 0.417 6.43975 16.6313 61.0898
515 172 2 0.417 5.1597 17.4399 60.9143
516 172 5 -0.834 6.10939 17.4156 60.6403
517 173 2 0.417 10.1302 15.9571 47.5631
518 173 2 0.417 8.8344 15.2584 47.9097
519 173 5 -0.834 9.3366 16.0911 48.1032
520 174 2 0.417 15.1798 23.7672 39.2203
521 174 2 0.417 15.6012 22.3075 38.9224
522 174 5 -0.834 15.2469 23.101 38.4413
523 175 2 0.417 3.57695 14.1856 51.1188
524 175 2 0.417 4.59204 13.833 49.9998
525 175 5 -0.834 3.68342 14.1011 50.0938
526 176 2 0.417 8.94818 13.332 48.4671
527 176 2 0.417 9.25207 12.7844 47.0197
528 176 5 -0.834 9.32957 13.5607 47.576
529 177 2 0.417 4.16894 9.41845 89.9742
530 177 2 0.417 4.46684 8.4166 90.9645
531 177 5 -0.834 4.37868 8.42503 89.9732
532 178 2 0.417 11.0167 12.9927 22.041
533 178 2 0.417 10.7509 12.4215 20.5983
534 178 5 -0.834 10.3261 12.89 21.343
535 179 2 0.417 7.71269 20.7816 48.579
536 179 2 0.417 6.80469 19.6289 48.2389
537 179 5 -0.834 6.80422 20.5753 48.3221
538 180 2 0.417 6.58294 17.2081 39.0352
539 180 2 0.417 5.83795 16.2557 39.839
540 180 5 -0.834 5.76173 16.7438 38.984
541 181 2 0.417 2.86531 15.0296 99.5178
542 181 2 0.417 1.69453 15.3413 98.5535
543 181 5 -0.834 1.87492 14.9594 99.4493
544 182 2 0.417 6.09601 1.54318 1.93699
545 182 2 0.417 7.18966 2.0685 2.6361
546 182 5 -0.834 6.97124 1.86569 1.70632
547 183 2 0.417 8.58571 4.76004 39.7476
548 183 2 0.417 8.94395 5.78922 40.6648
549 183 5 -0.834 8.85113 5.75244 39.6981
550 184 2 0.417 15.5887 3.1706 94.4576
551 184 2 0.417 15.4086 1.93737 95.3462
552 184 5 -0.834 15.8673 2.7591 95.2809
553 185 2 0.417 2.86845 21.4906 83.5866
554 185 2 0.417 3.19811 20.6379 82.3774
555 185 5 -0.834 3.53126 21.4491 82.8383
556 186 2 0.417 3.38218 7.90844 62.3352
557 186 2 0.417 4.13772 8.24792 61.1475
558 186 5 -0.834 3.25568 8.33458 61.5063
559 187 2 0.417 6.22369 7.85224 69.5084
560 187 2 0.417 6.88907 7.65019 68.0329
561 187 5 -0.834 6.1792 8.11297 68.5518
562 188 2 0.417 13.1454 19.9543 6.01537
563 188 2 0.417 13.7315 18.7609 6.4793
564 188 5 -0.834 13.162 19.4355 6.77097
565 189 2 0.417 0.944416 8.11434 54.566
566 189 2 0.417 1.49399 8.14687 53.1175
567 189 5 -0.834 1.09016 7.53217 53.75
568 190 2 0.417 3.70457 21.6156 64.4341
569 190 2 0.417 5.07404 22.0949 64.5766
570 190 5 -0.834 4.5291 21.6576 63.9232
571 191 2 0.417 22.3993 15.0074 38.5542
572 191 2 0.417 23.2074 14.2162 37.7756
573 191 5 -0.834 23.2714 15.1196 38.116
574 192 2 0.417 13.5079 6.31272 89.1272
575 192 2 0.417 14.1528 5.09738 88.7391
576 192 5 -0.834 13.6388 5.77762 88.2769
577 193 2 0.417 21.1264 5.12175 66.2961
578 193 2 0.417 20.7691 5.69089 67.5924
579 193 5 -0.834 20.579 5.81951 66.6547
580 194 2 0.417 4.63109 2.00208 56.35
581 194 2 0.417 3.70428 1.11241 57.109
582 194 5 -0.834 3.83543 2.05804 56.8598
583 195 2 0.417 4.77579 7.77699 43.2615
584 195 2 0.417 4.32868 8.23178 44.5942
585 195 5 -0.834 4.54667 8.54682 43.7194
586 196 2 0.417 11.9865 2.59396 35.2352
587 196 2 0.417 13.0849 1.66771 35.7066
588 196 5 -0.834 12.7321 2.61376 35.7977
589 197 2 0.417 10.7624 7.95462 39.2003
590 197 2 0.417 10.1642 6.56335 39.0933
591 197 5 -0.834 10.9507 7.08193 38.7495
592 198 2 0.417 3.82848 13.4577 56.6852
593 198 2 0.417 4.54872 13.8599 55.3762
594 198 5 -0.834 3.64534 13.5508 55.708
595 199 2 0.417 11.4751 3.72374 93.0529
596 199 2 0.417 10.2694 2.96158 92.998
597 199 5 -0.834 11.2376 2.76697 93.017
598 200 2 0.417 12.5119 15.4021 54.2414
599 200 2 0.417 11.0628 15.3559 54.5902
600 200 5 -0.834 11.9366 15 54.9555
601 201 2 0.417 19.4405 12.1496 53.7689
602 201 2 0.417 19.9948 13.5911 53.7792
603 201 5 -0.834 19.7136 12.8721 53.1341
604 202 2 0.417 5.87374 11.1424 91.9031
605 202 2 0.417 7.04226 12.0579 91.6525
606 202 5 -0.834 6.05505 12.0697 91.5591
607 203 2 0.417 1.81603 24.0217 84.0618
608 203 2 0.417 1.92407 1.19763 83.39
609 203 5 -0.834 1.73046 0.281137 83.1492
610 204 2 0.417 20.17 12.8358 75.512
611 204 2 0.417 20.1589 14.1941 76.1632
612 204 5 -0.834 20.2816 13.7824 75.3265
613 205 2 0.417 12.4898 20.0321 78.496
614 205 2 0.417 11.5539 19.1226 77.6338
615 205 5 -0.834 12.1392 19.9798 77.6042
616 206 2 0.417 8.28471 14.7137 68.2808
617 206 2 0.417 7.37277 13.7316 69.0153
618 206 5 -0.834 8.21562 13.7854 68.5205
619 207 2 0.417 20.3854 7.96673 66.6539
620 207 2 0.417 20.4917 9.05954 67.6439
621 207 5 -0.834 20.6099 8.92527 66.662
622 208 2 0.417 11.5571 19.5882 86.9124
623 208 2 0.417 12.4291 19.9137 88.1695
624 208 5 -0.834 11.5613 19.5611 87.8953
625 209 2 0.417 6.28061 10.09 43.9342
626 209 2 0.417 7.63025 9.69091 43.8531
627 209 5 -0.834 7.16013 10.5189 44.095
628 210 2 0.417 15.0194 16.7722 92.5587
629 210 2 0.417 14.8579 17.8117 91.3392
630 210 5 -0.834 14.896 17.6906 92.3372
631 211 2 0.417 12.1979 9.62764 88.4797
632 211 2 0.417 10.7577 9.71027 88.2798
633 211 5 -0.834 11.5768 9.40162 87.8255
634 212 2 0.417 15.8792 3.53932 48.8258
635 212 2 0.417 15.0291 2.5863 49.5059
636 212 5 -0.834 15.0565 3.006 48.6527
637 213 2 0.417 1.6013 16.5274 19.2441
638 213 2 0.417 24.1718 16.5576 18.8158
639 213 5 -0.834 1.01283 17.0031 18.6495
640 214 2 0.417 0.510063 22.8445 78.5102
641 214 2 0.417 0.267812 23.2394 79.9221
642 214 5 -0.834 0.656969 23.5728 79.1116
643 215 2 0.417 12.9502 0.94772 78.9493
644 215 2 0.417 12.6537 2.45876 79.3858
645 215 5 -0.834 13.358 1.82612 79.1597
646 216 2 0.417 0.66339 5.70795 81.1957
647 216 2 0.417 2.14239 5.47098 81.4522
648 216 5 -0.834 1.57417 5.8739 80.7911
649 217 2 0.417 11.0027 23.7049 95.054
650 217 2 0.417 12.4359 24.026 94.6701
651 217 5 -0.834 11.5581 23.7366 94.2471
652 218 2 0.417 23.1357 11.1102 78.7975
653 218 2 0.417 23.0952 12.6346 78.6806
654 218 5 -0.834 22.5858 11.8198 78.4675
655 219 2 0.417 9.87325 17.5681 54.2283
656 219 2 0.417 9.95732 17.3388 52.771
657 219 5 -0.834 9.88825 16.8449 53.5964
658 220 2 0.417 15.7173 22.7413 86.5959
659 220 2 0.417 15.719 23.4268 85.2974
660 220 5 -0.834 15.5772 22.5567 85.6352
661 221 2 0.417 3.7594 19.6319 34.2411
662 221 2 0.417 4.98065 20.4584 33.5676
663 221 5 -0.834 4.69215 19.6689 34.1681
664 222 2 0.417 23.4959 18.6751 49.1525
665 222 2 0.417 23.4183 19.9642 50.0631
666 222 5 -0.834 23.2682 19.6256 49.1507
667 223 2 0.417 10.8773 21.8274 4.59565
668 223 2 0.417 10.6519 22.9373 5.35549
669 223 5 -0.834 10.4367 22.6323 4.49984
670 224 2 0.417 7.47935 11.3565 36.0035
671 224 2 0.417 8.87802 10.8091 35.9647
672 224 5 -0.834 8.38077 11.5071 35.5947
673 225 2 0.417 21.4435 0.301325 39.4712
674 225 2 0.417 22.5851 23.3817 39.4437
675 225 5 -0.834 21.914 23.7045 38.8227
676 226 2 0.417 10.8287 22.724 12.4572
677 226 2 0.417 11.3082 23.5647 13.684
678 226 5 -0.834 11.4785 23.4469 12.7135
679 227 2 0.417 20.2286 2.52332 38.5061
680 227 2 0.417 18.8752 2.03058 38.7711
681 227 5 -0.834 19.4643 2.18976 37.9919
682 228 2 0.417 7.00362 6.72336 66.1237
683 228 2 0.417 6.81948 6.1045 64.8354
684 228 5 -0.834 6.27713 6.39495 65.5902
685 229 2 0.417 7.27589 13.653 37.6187
686 229 2 0.417 7.16477 14.8549 36.8105
687 229 5 -0.834 7.8074 14.1185 36.9455
688 230 2 0.417 23.7775 17.7493 79.4407
689 230 2 0.417 23.0959 18.5453 80.5549
690 230 5 -0.834 23.9022 18.463 80.1177
691 231 2 0.417 21.3378 10.2457 56.1643
692 231 2 0.417 21.8319 11.5282 56.4541
693 231 5 -0.834 21.8775 10.8962 55.7188
694 232 2 0.417 7.13313 4.46828 49.5013
695 232 2 0.417 6.45152 5.45814 50.425
696 232 5 -0.834 6.23033 4.7961 49.7362
697 233 2 0.417 22.5241 17.079 58.3622
698 233 2 0.417 22.868 15.8112 58.7737
699 233 5 -0.834 22.2246 16.4394 59.0642
700 234 2 0.417 3.58313 14.8811 73.602
701 234 2 0.417 2.57792 14.6236 72.5434
702 234 5 -0.834 2.80003 15.2889 73.2684
703 235 2 0.417 7.47919 4.2683 83.7926
704 235 2 0.417 8.41842 5.5008 83.9084
705 235 5 -0.834 8.0298 4.77913 83.2095
706 236 2 0.417 8.12402 8.61449 39.8235
707 236 2 0.417 9.13419 9.57715 40.2008
708 236 5 -0.834 9.07119 8.76572 39.7099
709 237 2 0.417 3.7808 0.812413 1.97026
710 237 2 0.417 4.27454 0.659069 3.35483
711 237 5 -0.834 4.59917 0.929955 2.47958
712 238 2 0.417 12.3522 20.0229 84.7723
713 238 2 0.417 11.4419 18.7689 84.5348
714 238 5 -0.834 11.5749 19.5021 85.0968
715 239 2 0.417 0.37112 19.9469 90.9568
716 239 2 0.417 1.56723 19.5356 90.3826
717 239 5 -0.834 0.644434 19.4401 90.2179
718 240 2 0.417 21.1436 10.021 72.7556
719 240 2 0.417 21.8017 11.0667 71.8027
720 240 5 -0.834 21.2628 10.2428 71.8198
721 241 2 0.417 23.8806 23.1911 85.219
722 241 2 0.417 22.8041 24.1764 84.6978
723 241 5 -0.834 23.0791 23.6733 85.4669
724 242 2 0.417 23.6375 5.53186 43.3897
725 242 2 0.417 22.656 5.57485 42.3315
726 242 5 -0.834 23.305 4.99423 42.6459
727 243 2 0.417 13.5616 8.0359 79.7552
728 243 2 0.417 13.2196 6.71464 80.4287
729 243 5 -0.834 12.8691 7.38103 79.8392
730 244 2 0.417 20.4455 11.3553 79.464
731 244 2 0.417 19.3591 11.2508 80.4074
732 244 5 -0.834 19.5669 11.0067 79.5024
733 245 2 0.417 1.88565 9.30171 35.399
734 245 2 0.417 2.3717 8.02511 35.8061
735 245 5 -0.834 2.73931 8.9087 35.6455
736 246 2 0.417 14.5947 7.9287 87.646
737 246 2 0.417 15.4272 8.55937 88.7998
738 246 5 -0.834 15.0541 8.73857 87.8917
739 247 2 0.417 8.19211 17.5709 47.6105
740 247 2 0.417 7.61157 17.8211 46.2872
741 247 5 -0.834 7.40653 18.0401 47.2326
742 248 2 0.417 24.0929 10.0265 34.4024
743 248 2 0.417 23.3191 8.85272 34.9956
744 248 5 -0.834 24.1581 9.30834 35.0472
745 249 2 0.417 1.75138 12.7624 77.6436
746 249 2 0.417 1.78257 11.2716 78.0756
747 249 5 -0.834 1.88092 11.8463 77.3201
748 250 2 0.417 10.1643 20.9194 47.9121
749 250 2 0.417 10.1017 22.1245 48.8121
750 250 5 -0.834 9.51816 21.5925 48.2045
751 251 2 0.417 6.78892 8.27001 41.9183
752 251 2 0.417 5.5705 8.37823 40.9035
753 251 5 -0.834 6.47388 8.74317 41.0779