 DBCSR| CPU Multiplication driver                                           XSMM
 DBCSR| Multrec recursion limit                                              512
 DBCSR| Multiplication stack size                                           1000
 DBCSR| Maximum elements for images                                    UNLIMITED
 DBCSR| Multiplicative factor virtual images                                   1
 DBCSR| Use multiplication densification                                       T
 DBCSR| Multiplication size stacks                                             3
 DBCSR| Number of 3D layers                                               SINGLE
 DBCSR| Use MPI memory allocation                                              T
 DBCSR| Use RMA algorithm                                                      F
 DBCSR| Use Communication thread                                               T
 DBCSR| Communication thread load                                             87


  **** **** ******  **  PROGRAM STARTED AT               2022-07-05 19:05:22.818
 ***** ** ***  *** **   PROGRAM STARTED ON         node1866.palmetto.clemson.edu
 **    ****   ******    PROGRAM STARTED BY                               xiutinc
 ***** **    ** ** **   PROGRAM PROCESS ID                               1352174
  **** **  *******  **  PROGRAM STARTED IN  /scratch1/xiutinc/CP2K-5305488.pbs02

 CP2K| version string:                                          CP2K version 7.1
 CP2K| source code revision number:                                  git:e635599
 CP2K| cp2kflags: libint fftw3 libxc parallel mpi3 scalapack xsmm               
 CP2K| is freely available from                            https://www.cp2k.org/
 CP2K| Program compiled at                          Wed Aug 12 10:01:37 EDT 2020
 CP2K| Program compiled on                           util02.palmetto.clemson.edu
 CP2K| Program compiled for                          linux-centos8-ivybridge-gcc
 CP2K| Data directory path    /software/spackages/linux-centos8-ivybridge/gcc-8.
 CP2K| Input file name                                             intE01_aq.inp

 GLOBAL| Force Environment number                                              1
 GLOBAL| Basis set file name                                          BASIS_file
 GLOBAL| Potential file name                                     POTENTIALS_file
 GLOBAL| MM Potential file name                                     MM_POTENTIAL
 GLOBAL| Coordinate file name                                    ./intE01_aq.xyz
 GLOBAL| Method name                                                        CP2K
 GLOBAL| Project name                                                  intE01_aq
 GLOBAL| Preferred FFT library                                             FFTW3
 GLOBAL| Preferred diagonalization lib.                                       SL
 GLOBAL| Run type                                                        GEO_OPT
 GLOBAL| All-to-all communication in single precision                          F
 GLOBAL| FFTs using library dependent lengths                                  F
 GLOBAL| Global print level                                                  LOW
 GLOBAL| MPI I/O enabled                                                       T
 GLOBAL| Total number of message passing processes                            24
 GLOBAL| Number of threads for this process                                    1
 GLOBAL| This output is from process                                           0
 GLOBAL| CPU model name                Intel(R) Xeon(R) CPU E5-2680 v3 @ 2.50GHz
 GLOBAL| CPUID                                                              1002
 GLOBAL| Compiled for CPUID                                                 1001

 MEMORY| system memory details [Kb]
 MEMORY|                        rank 0           min           max       average
 MEMORY| MemTotal            131309540     131309540     131309540     131309540
 MEMORY| MemFree             122959716     122959716     122959716     122959716
 MEMORY| Buffers                  6284          6284          6284          6284
 MEMORY| Cached                3876380       3876380       3876380       3876380
 MEMORY| Slab                  1259668       1259668       1259668       1259668
 MEMORY| SReclaimable           659004        659004        659004        659004
 MEMORY| MemLikelyFree       127501384     127501384     127501384     127501384


 *******************************************************************************
 *******************************************************************************
 **                                                                           **
 **     #####                         ##              ##                      **
 **    ##   ##            ##          ##              ##                      **
 **   ##     ##                       ##            ######                    **
 **   ##     ##  ##   ##  ##   #####  ##  ##   ####   ##    #####    #####    **
 **   ##     ##  ##   ##  ##  ##      ## ##   ##      ##   ##   ##  ##   ##   **
 **   ##  ## ##  ##   ##  ##  ##      ####     ###    ##   ######   ######    **
 **    ##  ###   ##   ##  ##  ##      ## ##      ##   ##   ##       ##        **
 **     #######   #####   ##   #####  ##  ##  ####    ##    #####   ##        **
 **           ##                                                    ##        **
 **                                                                           **
 **                                                ... make the atoms dance   **
 **                                                                           **
 **            Copyright (C) by CP2K developers group (2000 - 2019)           **
 **                                                                           **
 *******************************************************************************


 TOTAL NUMBERS AND MAXIMUM NUMBERS

  Total number of            - Atomic kinds:                                   5
                             - Atoms:                                        657
                             - Shell sets:                                   657
                             - Shells:                                      3176
                             - Primitive Cartesian functions:               3096
                             - Cartesian basis functions:                   8711
                             - Spherical basis functions:                   8106

  Maximum angular momentum of- Orbital basis functions:                        3
                             - Local part of the GTH pseudopotential:          2
                             - Non-local part of the GTH pseudopotential:      3


 SCF PARAMETERS         Density guess:                                   RESTART
                        --------------------------------------------------------
                        max_scf:                                             500
                        max_scf_history:                                       0
                        max_diis:                                              4
                        --------------------------------------------------------
                        eps_scf:                                        1.00E-06
                        eps_scf_history:                                0.00E+00
                        eps_diis:                                       1.00E-01
                        eps_eigval:                                     1.00E-05
                        --------------------------------------------------------
                        level_shift [a.u.]:                                 0.00
                        --------------------------------------------------------
                        Outer loop SCF in use 
                        No variables optimised in outer loop
                        eps_scf                                         1.00E-06
                        max_scf                                               50
                        No outer loop optimization
                        step_size                                       5.00E-01

 BFGS| Use rational function optimization for step estimation:                NO
 BFGS| Use model Hessian for initial guess:                                  YES
 BFGS| Restart Hessian:                                                       NO
 BFGS| Trust radius:                                                       0.472

 *******************************************************************************
 ***                     STARTING GEOMETRY OPTIMIZATION                      ***
 ***                                   BFGS                                  ***
 *******************************************************************************

 Number of electrons:                                                       3286
 Number of occupied orbitals:                                               1643
 Number of molecular orbitals:                                              1643

 Number of orbital functions:                                               8106
 Number of independent orbital functions:                                   8106

 Extrapolation method: initial_guess

 *** WARNING in qs_initial_guess.F:280 :: User requested to restart the   ***
 *** wavefunction from the file named: intE01_aq-RESTART.wfn. This file   ***
 *** does not exist. Please check the existence of the file or change     ***
 *** properly the value of the keyword WFN_RESTART_FILE_NAME. Calculation ***
 *** continues using ATOMIC GUESS.                                        ***



 SCF WAVEFUNCTION OPTIMIZATION

  ----------------------------------- OT ---------------------------------------
  Minimizer      : CG                  : conjugate gradient
  Preconditioner : FULL_ALL            : diagonalization, state selective
  Precond_solver : DEFAULT
  Line search    : 2PNT                : 2 energies, one gradient
  stepsize       :    0.15000000                  energy_gap     :    0.00100000
  eps_taylor     :   0.10000E-15                  max_taylor     :             4
  ----------------------------------- OT ---------------------------------------

  Step     Update method      Time    Convergence         Total energy    Change
  ------------------------------------------------------------------------------
     1 OT CG       0.15E+00   37.6     0.01642541     -7202.1267285611 -7.20E+03
     2 OT LS       0.60E-01    4.2                    -7071.8077397198
     3 OT CG       0.60E-01   10.6     0.07791481     -7103.3398516219  9.88E+01
     4 OT LS       0.27E-01    4.2                    -6573.2672552385
     5 OT CG       0.27E-01   10.6     0.12752358     -6741.8283974824  3.62E+02
     6 OT LS       0.15E-01    4.2                    -6920.3648048894
     7 OT CG       0.15E-01   10.6     0.06584533     -7033.0849776987 -2.91E+02
     8 OT LS       0.85E-02    4.2                    -7148.2477134193
     9 OT CG       0.85E-02   10.6     0.01648634     -7184.6079678185 -1.52E+02
    10 OT LS       0.24E-01    4.2                    -7206.8242388619
    11 OT CG       0.24E-01   10.6     0.01679220     -7220.2073643718 -3.56E+01
    12 OT LS       0.28E-01    4.2                    -7266.6106691499
    13 OT CG       0.28E-01   10.6     0.00991485     -7270.4574278878 -5.03E+01
    14 OT LS       0.39E-01    4.2                    -7294.4217940622
    15 OT CG       0.39E-01   10.6     0.00901586     -7298.1536449396 -2.77E+01
    16 OT LS       0.21E-01    4.2                    -7301.2943245011
    17 OT CG       0.21E-01   10.7     0.01076864     -7312.2947631701 -1.41E+01
    18 OT LS       0.28E-01    4.2                    -7333.4208087885
    19 OT CG       0.28E-01   10.6     0.01233643     -7333.9521905094 -2.17E+01
    20 OT LS       0.18E-01    4.2                    -7346.1449103874
    21 OT CG       0.18E-01   10.5     0.00545691     -7347.5657823655 -1.36E+01
    22 OT LS       0.68E-01    4.2                    -7353.7434256971
    23 OT CG       0.68E-01   10.6     0.00749307     -7357.6274681984 -1.01E+01
    24 OT LS       0.15E-01    4.2                    -7326.5410438752
    25 OT CG       0.15E-01   10.6     0.00703636     -7360.7214013771 -3.09E+00
    26 OT LS       0.18E-01    4.2                    -7366.4770408570
    27 OT CG       0.18E-01   10.6     0.00337320     -7366.7277929187 -6.01E+00
    28 OT LS       0.63E-01    4.2                    -7369.1797261138
    29 OT CG       0.63E-01   10.6     0.00431803     -7370.9991655778 -4.27E+00
    30 OT LS       0.24E-01    4.2                    -7368.0009060916
    31 OT CG       0.24E-01   10.6     0.00462542     -7372.9832571055 -1.98E+00
    32 OT LS       0.21E-01    4.2                    -7375.9130754602
    33 OT CG       0.21E-01   13.8     0.00262047     -7375.9480912790 -2.96E+00
    34 OT LS       0.55E-01    4.2                    -7377.5495943518
    35 OT CG       0.55E-01   10.6     0.00256297     -7378.3850854438 -2.44E+00
    36 OT LS       0.88E-01    4.2                    -7381.2147497760
    37 OT CG       0.88E-01   10.6     0.00322742     -7381.6618850955 -3.28E+00
    38 OT LS       0.62E-01    4.2                    -7385.2095992463
    39 OT CG       0.62E-01   10.6     0.00248392     -7385.7200851184 -4.06E+00
    40 OT LS       0.51E-01    4.2                    -7387.7175550759
    41 OT CG       0.51E-01   10.5     0.00271978     -7387.8807140882 -2.16E+00
    42 OT LS       0.58E-01    4.2                    -7390.5944251744
    43 OT CG       0.58E-01   10.6     0.00245966     -7390.6438598061 -2.76E+00
    44 OT LS       0.42E-01    4.2                    -7392.1452018859
    45 OT CG       0.42E-01   10.6     0.00228281     -7392.2880375500 -1.64E+00
    46 OT LS       0.65E-01    4.2                    -7394.3110702415
    47 OT CG       0.65E-01   10.6     0.00217381     -7394.4940336078 -2.21E+00
    48 OT LS       0.86E-01    4.2                    -7396.7195855760
    49 OT CG       0.86E-01   10.8     0.00248612     -7396.8532748810 -2.36E+00
    50 OT LS       0.63E-01    4.2                    -7399.0572130880
    51 OT CG       0.63E-01   10.6     0.00221639     -7399.2626291423 -2.41E+00
    52 OT LS       0.53E-01    4.2                    -7401.0004588918
    53 OT CG       0.53E-01   10.6     0.00190116     -7401.0958557474 -1.83E+00
    54 OT LS       0.76E-01    4.2                    -7402.6863457676
    55 OT CG       0.76E-01   10.6     0.00207227     -7402.8520245018 -1.76E+00
    56 OT LS       0.57E-01    4.2                    -7404.3147724854
    57 OT CG       0.57E-01   10.6     0.00174414     -7404.4124619121 -1.56E+00
    58 OT LS       0.79E-01    4.2                    -7405.9332613183
    59 OT CG       0.79E-01   16.3     0.00185646     -7406.0071709655 -1.59E+00
    60 OT LS       0.61E-01    6.2                    -7407.1825249377
    61 OT CG       0.61E-01   10.5     0.00188932     -7407.2808331037 -1.27E+00
    62 OT LS       0.58E-01    4.2                    -7408.6676160679
    63 OT CG       0.58E-01   10.6     0.00150628     -7408.6626180965 -1.38E+00
    64 OT LS       0.79E-01    4.2                    -7409.8330329585
    65 OT CG       0.79E-01   10.8     0.00148583     -7409.8834466667 -1.22E+00
    66 OT LS       0.73E-01    4.2                    -7410.8438743694
    67 OT CG       0.73E-01   10.6     0.00169266     -7410.8500984933 -9.67E-01
    68 OT LS       0.66E-01    4.2                    -7412.1059908457
    69 OT CG       0.66E-01   10.6     0.00138161     -7412.1030181526 -1.25E+00
    70 OT LS       0.85E-01    4.2                    -7413.1873225162
    71 OT CG       0.85E-01   10.6     0.00136690     -7413.2203376379 -1.12E+00
    72 OT LS       0.77E-01    4.2                    -7414.0933150841
    73 OT CG       0.77E-01   10.6     0.00156714     -7414.1058126370 -8.85E-01
    74 OT LS       0.69E-01    4.2                    -7415.1995127561
    75 OT CG       0.69E-01   10.6     0.00124835     -7415.2040707664 -1.10E+00
    76 OT LS       0.89E-01    4.2                    -7416.1105756985
    77 OT CG       0.89E-01   10.6     0.00121374     -7416.1490278012 -9.45E-01
    78 OT LS       0.78E-01    4.2                    -7416.8594648095
    79 OT CG       0.78E-01   10.6     0.00131714     -7416.8779955589 -7.29E-01
    80 OT LS       0.79E-01    4.2                    -7417.7876817931
    81 OT CG       0.79E-01   10.8     0.00114019     -7417.7895168873 -9.12E-01
    82 OT LS       0.81E-01    4.2                    -7418.5146326513
    83 OT CG       0.81E-01   10.6     0.00112375     -7418.5145100139 -7.25E-01
    84 OT LS       0.75E-01    4.2                    -7419.1266403807
    85 OT CG       0.75E-01   10.6     0.00112846     -7419.1337092782 -6.19E-01
    86 OT LS       0.84E-01    4.2                    -7419.8229786865
    87 OT CG       0.84E-01   10.6     0.00109829     -7419.8343318185 -7.01E-01
    88 OT LS       0.75E-01    4.2                    -7420.4383751310
    89 OT CG       0.75E-01   10.6     0.00098232     -7420.4454103208 -6.11E-01
    90 OT LS       0.89E-01    4.2                    -7421.0088156918
    91 OT CG       0.89E-01   10.6     0.00100684     -7421.0199901653 -5.75E-01
    92 OT LS       0.82E-01    4.2                    -7421.5560290392
    93 OT CG       0.82E-01   10.6     0.00104726     -7421.5603024378 -5.40E-01
    94 OT LS       0.76E-01    4.2                    -7422.1124606665
    95 OT CG       0.76E-01   10.6     0.00091897     -7422.1143970948 -5.54E-01
    96 OT LS       0.83E-01    4.2                    -7422.5853013518
    97 OT CG       0.83E-01   10.6     0.00089477     -7422.5883333926 -4.74E-01
    98 OT LS       0.84E-01    4.3                    -7423.0329004724
    99 OT CG       0.84E-01   10.6     0.00090571     -7423.0328521636 -4.45E-01
   100 OT LS       0.85E-01    4.2                    -7423.4922288087
   101 OT CG       0.85E-01   10.5     0.00090041     -7423.4924071840 -4.60E-01
   102 OT LS       0.76E-01    4.2                    -7423.8999138347
   103 OT CG       0.76E-01   10.6     0.00081700     -7423.9047662062 -4.12E-01
   104 OT LS       0.86E-01    4.2                    -7424.2829768809
   105 OT CG       0.86E-01   10.6     0.00080845     -7424.2870487626 -3.82E-01
   106 OT LS       0.84E-01    4.2                    -7424.6520307554
   107 OT CG       0.84E-01   10.6     0.00080939     -7424.6521585361 -3.65E-01
   108 OT LS       0.85E-01    4.2                    -7425.0182678875
   109 OT CG       0.85E-01   10.6     0.00078762     -7425.0182700852 -3.66E-01
   110 OT LS       0.78E-01    4.2                    -7425.3414387049
   111 OT CG       0.78E-01   10.6     0.00073077     -7425.3431876578 -3.25E-01
   112 OT LS       0.87E-01    4.2                    -7425.6505621809
   113 OT CG       0.87E-01   12.4     0.00072675     -7425.6532411891 -3.10E-01
   114 OT LS       0.84E-01    4.3                    -7425.9470740251
   115 OT CG       0.84E-01   10.6     0.00072678     -7425.9474912288 -2.94E-01
   116 OT LS       0.83E-01    4.2                    -7426.2387122648
   117 OT CG       0.83E-01   10.6     0.00069902     -7426.2387259287 -2.91E-01
   118 OT LS       0.81E-01    4.2                    -7426.5027699398
   119 OT CG       0.81E-01   10.6     0.00066196     -7426.5029181970 -2.64E-01
   120 OT LS       0.87E-01    4.2                    -7426.7556817260
   121 OT CG       0.87E-01   10.5     0.00065929     -7426.7566708324 -2.54E-01
   122 OT LS       0.84E-01    4.2                    -7426.9984482476
   123 OT CG       0.84E-01   10.6     0.00065413     -7426.9987752447 -2.42E-01
   124 OT LS       0.84E-01    4.2                    -7427.2363635259
   125 OT CG       0.84E-01   10.6     0.00063150     -7427.2363629889 -2.38E-01
   126 OT LS       0.83E-01    4.2                    -7427.4566643459
   127 OT CG       0.83E-01   10.6     0.00060084     -7427.4566741853 -2.20E-01
   128 OT LS       0.89E-01    4.2                    -7427.6700018918
   129 OT CG       0.89E-01   10.6     0.00059949     -7427.6709344399 -2.14E-01
   130 OT LS       0.86E-01    4.2                    -7427.8752589275
   131 OT CG       0.86E-01   10.6     0.00059771     -7427.8756027429 -2.05E-01
   132 OT LS       0.84E-01    4.2                    -7428.0742874189
   133 OT CG       0.84E-01   10.6     0.00058022     -7428.0743809718 -1.99E-01
   134 OT LS       0.82E-01    4.2                    -7428.2585336339
   135 OT CG       0.82E-01   10.6     0.00055727     -7428.2585907172 -1.84E-01
   136 OT LS       0.86E-01    4.2                    -7428.4357333476
   137 OT CG       0.86E-01   10.6     0.00055283     -7428.4360165480 -1.77E-01
   138 OT LS       0.84E-01    4.2                    -7428.6076290793
   139 OT CG       0.84E-01   18.1     0.00054883     -7428.6076808088 -1.72E-01
   140 OT LS       0.84E-01    4.4                    -7428.7748172069
   141 OT CG       0.84E-01   10.5     0.00053583     -7428.7748369681 -1.67E-01
   142 OT LS       0.83E-01    4.2                    -7428.9336947235
   143 OT CG       0.83E-01   10.6     0.00051377     -7428.9336957910 -1.59E-01
   144 OT LS       0.86E-01    4.2                    -7429.0856353481
   145 OT CG       0.86E-01   10.7     0.00050585     -7429.0858635679 -1.52E-01
   146 OT LS       0.86E-01    4.2                    -7429.2326555998
   147 OT CG       0.86E-01   10.6     0.00050135     -7429.2326603561 -1.47E-01
   148 OT LS       0.86E-01    4.2                    -7429.3758930368
   149 OT CG       0.86E-01   10.6     0.00049279     -7429.3758983561 -1.43E-01
   150 OT LS       0.84E-01    4.2                    -7429.5116590436
   151 OT CG       0.84E-01   10.6     0.00047762     -7429.5117067395 -1.36E-01
   152 OT LS       0.86E-01    4.2                    -7429.6419731311
   153 OT CG       0.86E-01   10.6     0.00046708     -7429.6420274273 -1.30E-01
   154 OT LS       0.86E-01    4.2                    -7429.7675539600
   155 OT CG       0.86E-01   10.6     0.00046063     -7429.7675590462 -1.26E-01
   156 OT LS       0.87E-01    4.2                    -7429.8901822528
   157 OT CG       0.87E-01   10.6     0.00045495     -7429.8901843677 -1.23E-01
   158 OT LS       0.85E-01    4.2                    -7430.0069309254
   159 OT CG       0.85E-01   10.6     0.00044344     -7430.0069977038 -1.17E-01
   160 OT LS       0.85E-01    4.2                    -7430.1185612211
   161 OT CG       0.85E-01   10.5     0.00043192     -7430.1185642223 -1.12E-01
   162 OT LS       0.87E-01    4.3                    -7430.2263195836
   163 OT CG       0.87E-01   10.6     0.00042357     -7430.2263530377 -1.08E-01
   164 OT LS       0.88E-01    4.2                    -7430.3310201161
   165 OT CG       0.88E-01   10.6     0.00042023     -7430.3310293153 -1.05E-01
   166 OT LS       0.86E-01    4.2                    -7430.4315389504
   167 OT CG       0.86E-01   10.6     0.00041191     -7430.4315998941 -1.01E-01
   168 OT LS       0.86E-01    4.2                    -7430.5281880687
   169 OT CG       0.86E-01   10.6     0.00040094     -7430.5281880758 -9.66E-02
   170 OT LS       0.87E-01    4.2                    -7430.6212128013
   171 OT CG       0.87E-01   10.6     0.00039371     -7430.6212379080 -9.30E-02
   172 OT LS       0.87E-01    4.2                    -7430.7112566396
   173 OT CG       0.87E-01   10.6     0.00038840     -7430.7112575089 -9.00E-02
   174 OT LS       0.87E-01    4.2                    -7430.7983050692
   175 OT CG       0.87E-01   10.6     0.00038163     -7430.7983088075 -8.71E-02
   176 OT LS       0.87E-01    4.2                    -7430.8821968799
   177 OT CG       0.87E-01   10.6     0.00037355     -7430.8821971534 -8.39E-02
   178 OT LS       0.86E-01    4.2                    -7430.9623724156
   179 OT CG       0.86E-01   10.7     0.00036629     -7430.9623728711 -8.02E-02
   180 OT LS       0.87E-01    4.2                    -7431.0399948558
   181 OT CG       0.87E-01   10.5     0.00036060     -7431.0399985968 -7.76E-02
   182 OT LS       0.87E-01    4.2                    -7431.1152721314
   183 OT CG       0.87E-01   10.6     0.00035501     -7431.1152721414 -7.53E-02
   184 OT LS       0.87E-01    4.2                    -7431.1880928206
   185 OT CG       0.87E-01   10.6     0.00034859     -7431.1880930841 -7.28E-02
   186 OT LS       0.86E-01    4.2                    -7431.2578944708
   187 OT CG       0.86E-01   10.6     0.00034026     -7431.2578967358 -6.98E-02
   188 OT LS       0.88E-01    4.2                    -7431.3254875528
   189 OT CG       0.88E-01   10.6     0.00033435     -7431.3255060034 -6.76E-02
   190 OT LS       0.87E-01    4.2                    -7431.3906072912
   191 OT CG       0.87E-01   10.6     0.00032950     -7431.3906077807 -6.51E-02
   192 OT LS       0.87E-01    4.2                    -7431.4535096849
   193 OT CG       0.87E-01   11.7     0.00032344     -7431.4535113634 -6.29E-02
   194 OT LS       0.87E-01    4.2                    -7431.5140773047
   195 OT CG       0.87E-01   10.7     0.00031665     -7431.5140773281 -6.06E-02
   196 OT LS       0.87E-01    4.2                    -7431.5724107769
   197 OT CG       0.87E-01   10.6     0.00031086     -7431.5724122830 -5.83E-02
   198 OT LS       0.88E-01    4.2                    -7431.6289710224
   199 OT CG       0.88E-01   10.6     0.00030600     -7431.6289731719 -5.66E-02
   200 OT LS       0.88E-01    4.2                    -7431.6836946478
   201 OT CG       0.88E-01   10.5     0.00030081     -7431.6836947582 -5.47E-02
   202 OT LS       0.88E-01    4.2                    -7431.7368691727
   203 OT CG       0.88E-01   10.6     0.00029545     -7431.7368707735 -5.32E-02
   204 OT LS       0.88E-01    4.2                    -7431.7879951207
   205 OT CG       0.88E-01   10.6     0.00029078     -7431.7879956650 -5.11E-02
   206 OT LS       0.88E-01    4.2                    -7431.8373520785
   207 OT CG       0.88E-01   10.6     0.00028594     -7431.8373525774 -4.94E-02
   208 OT LS       0.88E-01    4.2                    -7431.8854084560
   209 OT CG       0.88E-01   10.6     0.00028117     -7431.8854108522 -4.81E-02
   210 OT LS       0.88E-01    4.2                    -7431.9319972106
   211 OT CG       0.88E-01   10.7     0.00027680     -7431.9319974964 -4.66E-02
   212 OT LS       0.88E-01    4.2                    -7431.9769809083
   213 OT CG       0.88E-01   10.6     0.00027206     -7431.9769815425 -4.50E-02
   214 OT LS       0.89E-01    4.2                    -7432.0206551907
   215 OT CG       0.89E-01   10.6     0.00026797     -7432.0206563435 -4.37E-02
   216 OT LS       0.88E-01    4.2                    -7432.0629223898
   217 OT CG       0.88E-01   10.6     0.00026431     -7432.0629226215 -4.23E-02
   218 OT LS       0.89E-01    5.6                    -7432.1041432851
   219 OT CG       0.89E-01   16.4     0.00026036     -7432.1041435324 -4.12E-02
   220 OT LS       0.89E-01    4.3                    -7432.1441672869
   221 OT CG       0.89E-01   10.5     0.00025690     -7432.1441673001 -4.00E-02
   222 OT LS       0.89E-01    4.2                    -7432.1830755031
   223 OT CG       0.89E-01   10.6     0.00025356     -7432.1830756031 -3.89E-02
   224 OT LS       0.88E-01    4.2                    -7432.2208802789
   225 OT CG       0.88E-01   10.6     0.00024997     -7432.2208805129 -3.78E-02
   226 OT LS       0.88E-01    4.2                    -7432.2576713414
   227 OT CG       0.88E-01   10.8     0.00024564     -7432.2576714286 -3.68E-02
   228 OT LS       0.89E-01    4.2                    -7432.2935960477
   229 OT CG       0.89E-01   10.6     0.00024198     -7432.2936004670 -3.59E-02
   230 OT LS       0.89E-01    4.2                    -7432.3283804016
   231 OT CG       0.89E-01   10.6     0.00023870     -7432.3283806532 -3.48E-02
   232 OT LS       0.89E-01    4.2                    -7432.3621554288
   233 OT CG       0.89E-01   10.6     0.00023584     -7432.3621555584 -3.38E-02
   234 OT LS       0.88E-01    4.2                    -7432.3948467829
   235 OT CG       0.88E-01   10.6     0.00023230     -7432.3948490414 -3.27E-02
   236 OT LS       0.89E-01    4.2                    -7432.4266753274
   237 OT CG       0.89E-01   10.6     0.00022919     -7432.4266756968 -3.18E-02
   238 OT LS       0.89E-01    4.2                    -7432.4576754835
   239 OT CG       0.89E-01   10.6     0.00022529     -7432.4576754903 -3.10E-02
   240 OT LS       0.89E-01    4.2                    -7432.4878891082
   241 OT CG       0.89E-01   10.5     0.00022231     -7432.4878913621 -3.02E-02
   242 OT LS       0.89E-01    4.2                    -7432.5173403234
   243 OT CG       0.89E-01   10.8     0.00021887     -7432.5173403521 -2.94E-02
   244 OT LS       0.90E-01    4.2                    -7432.5459784124
   245 OT CG       0.90E-01   10.6     0.00021594     -7432.5459787409 -2.86E-02
   246 OT LS       0.90E-01    4.2                    -7432.5739181010
   247 OT CG       0.90E-01   10.6     0.00021318     -7432.5739182270 -2.79E-02
   248 OT LS       0.90E-01    4.2                    -7432.6011302914
   249 OT CG       0.90E-01   10.6     0.00021107     -7432.6011303083 -2.72E-02
   250 OT LS       0.89E-01    4.2                    -7432.6275793236
   251 OT CG       0.89E-01   10.6     0.00020875     -7432.6275811996 -2.65E-02
   252 OT LS       0.89E-01    4.2                    -7432.6533621152
   253 OT CG       0.89E-01   10.6     0.00020579     -7432.6533624234 -2.58E-02
   254 OT LS       0.89E-01    4.2                    -7432.6785835990
   255 OT CG       0.89E-01   10.6     0.00020322     -7432.6785846995 -2.52E-02
   256 OT LS       0.90E-01    4.2                    -7432.7032133734
   257 OT CG       0.90E-01   10.6     0.00020040     -7432.7032134060 -2.46E-02
   258 OT LS       0.90E-01    4.2                    -7432.7273346455
   259 OT CG       0.90E-01   10.8     0.00019777     -7432.7273358817 -2.41E-02
   260 OT LS       0.90E-01    4.2                    -7432.7508526324
   261 OT CG       0.90E-01   10.5     0.00019554     -7432.7508526644 -2.35E-02
   262 OT LS       0.90E-01    4.2                    -7432.7737728632
   263 OT CG       0.90E-01   10.6     0.00019254     -7432.7737730681 -2.29E-02
   264 OT LS       0.91E-01    4.2                    -7432.7961665406
   265 OT CG       0.91E-01   10.6     0.00019071     -7432.7961678332 -2.24E-02
   266 OT LS       0.90E-01    4.2                    -7432.8178879111
   267 OT CG       0.90E-01   10.6     0.00018855     -7432.8178907678 -2.17E-02
   268 OT LS       0.90E-01    4.2                    -7432.8390882826
   269 OT CG       0.90E-01   10.6     0.00018650     -7432.8390883387 -2.12E-02
   270 OT LS       0.89E-01    4.2                    -7432.8596846320
   271 OT CG       0.89E-01   10.6     0.00018401     -7432.8596855773 -2.06E-02
   272 OT LS       0.89E-01    4.2                    -7432.8797626575
   273 OT CG       0.89E-01   12.0     0.00018213     -7432.8797626867 -2.01E-02
   274 OT LS       0.89E-01    4.2                    -7432.8994260477
   275 OT CG       0.89E-01   10.7     0.00017973     -7432.8994260498 -1.97E-02
   276 OT LS       0.90E-01    4.2                    -7432.9187054825
   277 OT CG       0.90E-01   10.6     0.00017781     -7432.9187063954 -1.93E-02
   278 OT LS       0.89E-01    4.2                    -7432.9375367011
   279 OT CG       0.89E-01   10.6     0.00017556     -7432.9375367796 -1.88E-02
   280 OT LS       0.90E-01    4.2                    -7432.9559891501
   281 OT CG       0.90E-01   10.5     0.00017302     -7432.9559896363 -1.85E-02
   282 OT LS       0.91E-01    4.2                    -7432.9741050356
   283 OT CG       0.91E-01   10.6     0.00017115     -7432.9741071573 -1.81E-02
   284 OT LS       0.90E-01    4.2                    -7432.9917544428
   285 OT CG       0.90E-01   10.6     0.00016946     -7432.9917548279 -1.76E-02
   286 OT LS       0.90E-01    4.2                    -7433.0089538349
   287 OT CG       0.90E-01   10.6     0.00016742     -7433.0089544097 -1.72E-02
   288 OT LS       0.90E-01    4.2                    -7433.0257809024
   289 OT CG       0.90E-01   10.6     0.00016545     -7433.0257809876 -1.68E-02
   290 OT LS       0.90E-01    4.2                    -7433.0422203080
   291 OT CG       0.90E-01   10.6     0.00016378     -7433.0422203105 -1.64E-02
   292 OT LS       0.90E-01    4.3                    -7433.0583055596
   293 OT CG       0.90E-01   10.6     0.00016235     -7433.0583055952 -1.61E-02
   294 OT LS       0.90E-01    4.2                    -7433.0740265261
   295 OT CG       0.90E-01   10.6     0.00016052     -7433.0740269873 -1.57E-02
   296 OT LS       0.90E-01    4.2                    -7433.0894427558
   297 OT CG       0.90E-01   10.6     0.00015816     -7433.0894429071 -1.54E-02
   298 OT LS       0.91E-01    5.4                    -7433.1045800992
   299 OT CG       0.91E-01   16.5     0.00015595     -7433.1045820456 -1.51E-02
   300 OT LS       0.92E-01    4.2                    -7433.1194225242
   301 OT CG       0.92E-01   10.5     0.00015446     -7433.1194235533 -1.48E-02
   302 OT LS       0.91E-01    4.2                    -7433.1338661490
   303 OT CG       0.91E-01   10.6     0.00015334     -7433.1338670645 -1.44E-02
   304 OT LS       0.90E-01    4.2                    -7433.1479519516
   305 OT CG       0.90E-01   10.6     0.00015175     -7433.1479535134 -1.41E-02
   306 OT LS       0.90E-01    4.2                    -7433.1617594777
   307 OT CG       0.90E-01   10.7     0.00015018     -7433.1617594823 -1.38E-02
   308 OT LS       0.90E-01    4.2                    -7433.1753065388
   309 OT CG       0.90E-01   10.6     0.00014887     -7433.1753065852 -1.35E-02
   310 OT LS       0.90E-01    4.2                    -7433.1885349661
   311 OT CG       0.90E-01   10.6     0.00014722     -7433.1885354842 -1.32E-02
   312 OT LS       0.90E-01    4.2                    -7433.2015929890
   313 OT CG       0.90E-01   10.6     0.00014562     -7433.2015941359 -1.31E-02
   314 OT LS       0.91E-01    4.2                    -7433.2144166389
   315 OT CG       0.91E-01   10.6     0.00014415     -7433.2144168022 -1.28E-02
   316 OT LS       0.91E-01    4.2                    -7433.2269678101
   317 OT CG       0.91E-01   10.6     0.00014282     -7433.2269678295 -1.26E-02
   318 OT LS       0.91E-01    4.2                    -7433.2393427080
   319 OT CG       0.91E-01   10.6     0.00014124     -7433.2393429490 -1.24E-02
   320 OT LS       0.91E-01    4.2                    -7433.2514755507
   321 OT CG       0.91E-01   10.5     0.00013993     -7433.2514756306 -1.21E-02
   322 OT LS       0.91E-01    4.2                    -7433.2633897735
   323 OT CG       0.91E-01   10.7     0.00013876     -7433.2633897758 -1.19E-02
   324 OT LS       0.91E-01    4.2                    -7433.2750295766
   325 OT CG       0.91E-01   10.5     0.00013770     -7433.2750300829 -1.16E-02
   326 OT LS       0.90E-01    4.2                    -7433.2864345394
   327 OT CG       0.90E-01   10.6     0.00013664     -7433.2864348415 -1.14E-02
   328 OT LS       0.90E-01    4.2                    -7433.2975783923
   329 OT CG       0.90E-01   10.6     0.00013567     -7433.2975790412 -1.11E-02
   330 OT LS       0.89E-01    4.2                    -7433.3085073618
   331 OT CG       0.89E-01   10.6     0.00013406     -7433.3085076787 -1.09E-02
   332 OT LS       0.90E-01    4.2                    -7433.3192777441
   333 OT CG       0.90E-01   10.6     0.00013265     -7433.3192786582 -1.08E-02
   334 OT LS       0.90E-01    4.2                    -7433.3298517146
   335 OT CG       0.90E-01   10.6     0.00013136     -7433.3298517889 -1.06E-02
   336 OT LS       0.90E-01    4.2                    -7433.3402478559
   337 OT CG       0.90E-01   10.6     0.00012999     -7433.3402479297 -1.04E-02
   338 OT LS       0.91E-01    4.2                    -7433.3504946047
   339 OT CG       0.91E-01   10.6     0.00012862     -7433.3504950338 -1.02E-02
   340 OT LS       0.91E-01    4.3                    -7433.3605382710
   341 OT CG       0.91E-01   10.5     0.00012735     -7433.3605382811 -1.00E-02
   342 OT LS       0.91E-01    4.2                    -7433.3704079511
   343 OT CG       0.91E-01   10.6     0.00012626     -7433.3704080094 -9.87E-03
   344 OT LS       0.91E-01    4.2                    -7433.3800714751
   345 OT CG       0.91E-01   10.6     0.00012532     -7433.3800716196 -9.66E-03
   346 OT LS       0.91E-01    4.2                    -7433.3895474501
   347 OT CG       0.91E-01   10.6     0.00012411     -7433.3895476631 -9.48E-03
   348 OT LS       0.91E-01    4.2                    -7433.3988665139
   349 OT CG       0.91E-01   10.6     0.00012315     -7433.3988665845 -9.32E-03
   350 OT LS       0.91E-01    4.2                    -7433.4080189112
   351 OT CG       0.91E-01   10.6     0.00012223     -7433.4080189765 -9.15E-03
   352 OT LS       0.91E-01    4.2                    -7433.4170304741
   353 OT CG       0.91E-01   12.2     0.00012103     -7433.4170304773 -9.01E-03
   354 OT LS       0.91E-01    4.2                    -7433.4259201241
   355 OT CG       0.91E-01   10.6     0.00011991     -7433.4259204668 -8.89E-03
   356 OT LS       0.91E-01    4.4                    -7433.4346492376
   357 OT CG       0.91E-01   10.6     0.00011882     -7433.4346492381 -8.73E-03
   358 OT LS       0.91E-01    4.2                    -7433.4432480640
   359 OT CG       0.91E-01   10.6     0.00011804     -7433.4432481550 -8.60E-03
   360 OT LS       0.91E-01    4.2                    -7433.4516873260
   361 OT CG       0.91E-01   10.5     0.00011710     -7433.4516875946 -8.44E-03
   362 OT LS       0.91E-01    4.2                    -7433.4599923942
   363 OT CG       0.91E-01   10.6     0.00011616     -7433.4599923943 -8.30E-03
   364 OT LS       0.91E-01    4.2                    -7433.4681521974
   365 OT CG       0.91E-01   10.6     0.00011516     -7433.4681522165 -8.16E-03
   366 OT LS       0.91E-01    4.2                    -7433.4761703108
   367 OT CG       0.91E-01   10.6     0.00011417     -7433.4761703109 -8.02E-03
   368 OT LS       0.91E-01    4.2                    -7433.4840650486
   369 OT CG       0.91E-01   10.6     0.00011297     -7433.4840650696 -7.89E-03
   370 OT LS       0.91E-01    4.2                    -7433.4918179440
   371 OT CG       0.91E-01   10.6     0.00011209     -7433.4918180121 -7.75E-03
   372 OT LS       0.91E-01    4.2                    -7433.4994069430
   373 OT CG       0.91E-01   10.8     0.00011112     -7433.4994071901 -7.59E-03
   374 OT LS       0.91E-01    4.2                    -7433.5068680702
   375 OT CG       0.91E-01   10.6     0.00011007     -7433.5068680712 -7.46E-03
   376 OT LS       0.91E-01    4.2                    -7433.5142308468
   377 OT CG       0.91E-01   10.6     0.00010910     -7433.5142310886 -7.36E-03
   378 OT LS       0.91E-01    5.0                    -7433.5214790695
   379 OT CG       0.91E-01   16.2     0.00010833     -7433.5214790946 -7.25E-03
   380 OT LS       0.91E-01    4.2                    -7433.5285828162
   381 OT CG       0.91E-01   10.5     0.00010772     -7433.5285830641 -7.10E-03
   382 OT LS       0.90E-01    4.2                    -7433.5355622931
   383 OT CG       0.90E-01   10.6     0.00010671     -7433.5355625879 -6.98E-03
   384 OT LS       0.90E-01    4.2                    -7433.5424226496
   385 OT CG       0.90E-01   10.6     0.00010581     -7433.5424226684 -6.86E-03
   386 OT LS       0.90E-01    4.2                    -7433.5491580858
   387 OT CG       0.90E-01   10.6     0.00010497     -7433.5491581002 -6.74E-03
   388 OT LS       0.90E-01    4.3                    -7433.5557710844
   389 OT CG       0.90E-01   10.6     0.00010418     -7433.5557711247 -6.61E-03
   390 OT LS       0.90E-01    4.2                    -7433.5622673393
   391 OT CG       0.90E-01   10.6     0.00010320     -7433.5622673914 -6.50E-03
   392 OT LS       0.90E-01    4.2                    -7433.5686768676
   393 OT CG       0.90E-01   10.6     0.00010244     -7433.5686770706 -6.41E-03
   394 OT LS       0.90E-01    4.2                    -7433.5749884721
   395 OT CG       0.90E-01   10.6     0.00010136     -7433.5749884758 -6.31E-03
   396 OT LS       0.92E-01    4.2                    -7433.5812513643
   397 OT CG       0.92E-01   10.6     0.00010026     -7433.5812525244 -6.26E-03
   398 OT LS       0.92E-01    4.2                    -7433.5874331609
   399 OT CG       0.92E-01   10.6     0.00009948     -7433.5874335814 -6.18E-03
   400 OT LS       0.92E-01    4.2                    -7433.5935087815
   401 OT CG       0.92E-01   10.5     0.00009862     -7433.5935087956 -6.08E-03
   402 OT LS       0.92E-01    4.2                    -7433.5994840963
   403 OT CG       0.92E-01   10.6     0.00009786     -7433.5994841000 -5.98E-03
   404 OT LS       0.92E-01    4.2                    -7433.6053705720
   405 OT CG       0.92E-01   10.7     0.00009714     -7433.6053705731 -5.89E-03
   406 OT LS       0.92E-01    4.2                    -7433.6111568703
   407 OT CG       0.92E-01   10.6     0.00009655     -7433.6111569088 -5.79E-03
   408 OT LS       0.92E-01    4.2                    -7433.6168428766
   409 OT CG       0.92E-01   10.6     0.00009600     -7433.6168430343 -5.69E-03
   410 OT LS       0.91E-01    4.2                    -7433.6224517389
   411 OT CG       0.91E-01   10.6     0.00009532     -7433.6224517652 -5.61E-03
   412 OT LS       0.91E-01    4.2                    -7433.6279770916
   413 OT CG       0.91E-01   10.6     0.00009470     -7433.6279770958 -5.53E-03
   414 OT LS       0.91E-01    4.2                    -7433.6334218895
   415 OT CG       0.91E-01   10.6     0.00009416     -7433.6334219051 -5.44E-03
   416 OT LS       0.91E-01    4.2                    -7433.6387760120
   417 OT CG       0.91E-01   10.6     0.00009350     -7433.6387761730 -5.35E-03
   418 OT LS       0.91E-01    4.2                    -7433.6440523332
   419 OT CG       0.91E-01   10.6     0.00009280     -7433.6440523351 -5.28E-03
   420 OT LS       0.91E-01    4.2                    -7433.6492622706
   421 OT CG       0.91E-01   10.8     0.00009218     -7433.6492622992 -5.21E-03
   422 OT LS       0.90E-01    4.2                    -7433.6543835827
   423 OT CG       0.90E-01   10.6     0.00009160     -7433.6543836578 -5.12E-03
   424 OT LS       0.91E-01    4.2                    -7433.6594425707
   425 OT CG       0.91E-01   10.6     0.00009068     -7433.6594425719 -5.06E-03
   426 OT LS       0.91E-01    4.2                    -7433.6644431561
   427 OT CG       0.91E-01   10.6     0.00008995     -7433.6644435212 -5.00E-03
   428 OT LS       0.91E-01    4.2                    -7433.6693731919
   429 OT CG       0.91E-01   10.6     0.00008947     -7433.6693732072 -4.93E-03
   430 OT LS       0.91E-01    4.2                    -7433.6742275064
   431 OT CG       0.91E-01   10.6     0.00008900     -7433.6742276142 -4.85E-03
   432 OT LS       0.91E-01    4.2                    -7433.6790158629
   433 OT CG       0.91E-01   12.1     0.00008836     -7433.6790159103 -4.79E-03
   434 OT LS       0.91E-01    4.2                    -7433.6837338417
   435 OT CG       0.91E-01   10.6     0.00008773     -7433.6837338422 -4.72E-03
   436 OT LS       0.91E-01    4.2                    -7433.6883932907
   437 OT CG       0.91E-01   10.7     0.00008710     -7433.6883933040 -4.66E-03
   438 OT LS       0.91E-01    4.2                    -7433.6929995205
   439 OT CG       0.91E-01   10.6     0.00008641     -7433.6929995587 -4.61E-03
   440 OT LS       0.91E-01    4.2                    -7433.6975422855
   441 OT CG       0.91E-01   10.5     0.00008578     -7433.6975423051 -4.54E-03
   442 OT LS       0.91E-01    4.2                    -7433.7020170098
   443 OT CG       0.91E-01   10.6     0.00008526     -7433.7020170110 -4.47E-03
   444 OT LS       0.91E-01    4.2                    -7433.7064418543
   445 OT CG       0.91E-01   10.6     0.00008464     -7433.7064418584 -4.42E-03
   446 OT LS       0.92E-01    4.2                    -7433.7108083676
   447 OT CG       0.92E-01   10.6     0.00008439     -7433.7108083737 -4.37E-03
   448 OT LS       0.91E-01    4.2                    -7433.7151068917
   449 OT CG       0.91E-01   10.6     0.00008388     -7433.7151072925 -4.30E-03
   450 OT LS       0.91E-01    4.2                    -7433.7193576710
   451 OT CG       0.91E-01   10.6     0.00008321     -7433.7193576736 -4.25E-03
   452 OT LS       0.91E-01    4.2                    -7433.7235684551
   453 OT CG       0.91E-01   10.8     0.00008258     -7433.7235686452 -4.21E-03
   454 OT LS       0.92E-01    4.2                    -7433.7277265886
   455 OT CG       0.92E-01   10.6     0.00008205     -7433.7277266119 -4.16E-03
   456 OT LS       0.91E-01    4.2                    -7433.7318240517
   457 OT CG       0.91E-01   11.3     0.00008148     -7433.7318240675 -4.10E-03
   458 OT LS       0.91E-01    4.6                    -7433.7358686515
   459 OT CG       0.91E-01   15.7     0.00008096     -7433.7358686563 -4.04E-03
   460 OT LS       0.91E-01    4.2                    -7433.7398534448
   461 OT CG       0.91E-01   10.5     0.00008048     -7433.7398534639 -3.98E-03
   462 OT LS       0.91E-01    4.2                    -7433.7437864987
   463 OT CG       0.91E-01   10.6     0.00007977     -7433.7437865033 -3.93E-03
   464 OT LS       0.92E-01    4.2                    -7433.7476781629
   465 OT CG       0.92E-01   10.6     0.00007922     -7433.7476783528 -3.89E-03
   466 OT LS       0.92E-01    4.2                    -7433.7515145152
   467 OT CG       0.92E-01   10.6     0.00007861     -7433.7515145159 -3.84E-03
   468 OT LS       0.92E-01    4.2                    -7433.7552944311
   469 OT CG       0.92E-01   10.7     0.00007828     -7433.7552944330 -3.78E-03
   470 OT LS       0.91E-01    4.2                    -7433.7590147462
   471 OT CG       0.91E-01   10.6     0.00007776     -7433.7590149660 -3.72E-03
   472 OT LS       0.91E-01    4.2                    -7433.7626914178
   473 OT CG       0.91E-01   10.6     0.00007736     -7433.7626914257 -3.68E-03
   474 OT LS       0.91E-01    4.2                    -7433.7663175460
   475 OT CG       0.91E-01   10.6     0.00007682     -7433.7663175890 -3.63E-03
   476 OT LS       0.91E-01    4.2                    -7433.7699026709
   477 OT CG       0.91E-01   10.6     0.00007640     -7433.7699026959 -3.59E-03
   478 OT LS       0.91E-01    4.2                    -7433.7734467337
   479 OT CG       0.91E-01   10.6     0.00007586     -7433.7734467350 -3.54E-03
   480 OT LS       0.91E-01    4.2                    -7433.7769374694
   481 OT CG       0.91E-01   10.5     0.00007547     -7433.7769374737 -3.49E-03
   482 OT LS       0.91E-01    4.2                    -7433.7803748819
   483 OT CG       0.91E-01   10.6     0.00007504     -7433.7803749755 -3.44E-03
   484 OT LS       0.91E-01    4.2                    -7433.7837745973
   485 OT CG       0.91E-01   10.8     0.00007456     -7433.7837745981 -3.40E-03
   486 OT LS       0.91E-01    4.2                    -7433.7871279305
   487 OT CG       0.91E-01   10.6     0.00007401     -7433.7871279328 -3.35E-03
   488 OT LS       0.91E-01    4.2                    -7433.7904364424
   489 OT CG       0.91E-01   10.6     0.00007351     -7433.7904364476 -3.31E-03
   490 OT LS       0.91E-01    4.2                    -7433.7937135198
   491 OT CG       0.91E-01   10.6     0.00007293     -7433.7937135728 -3.28E-03
   492 OT LS       0.92E-01    4.2                    -7433.7969549730
   493 OT CG       0.92E-01   10.6     0.00007242     -7433.7969550493 -3.24E-03
   494 OT LS       0.91E-01    4.2                    -7433.8001500463
   495 OT CG       0.91E-01   10.6     0.00007192     -7433.8001500469 -3.19E-03
   496 OT LS       0.92E-01    4.2                    -7433.8033144265
   497 OT CG       0.92E-01   10.6     0.00007149     -7433.8033144804 -3.16E-03
   498 OT LS       0.92E-01    4.2                    -7433.8064453095
   499 OT CG       0.92E-01   10.6     0.00007116     -7433.8064453151 -3.13E-03
   500 OT LS       0.92E-01    4.2                    -7433.8095433791

  Leaving inner SCF loop after reaching   500 steps.


  Electronic density on regular grids:      -3285.9999971060        0.0000028940
  Core density on regular grids:             3285.9999998090       -0.0000001910
  Total charge density on r-space grids:        0.0000027031
  Total charge density g-space grids:           0.0000027031

  Overlap energy of the core charge distribution:               0.00000830259370
  Self energy of the core charge distribution:             -19132.45788526877732
  Core Hamiltonian energy:                                   5428.29657929373388
  Hartree energy:                                            8004.25803819146222
  Exchange-correlation energy:                              -1731.77345904802974
  Dispersion energy:                                           -2.13282485004934

  Total energy:                                             -7433.80954337906496

  outer SCF iter =    1 RMS gradient =   0.71E-04 energy =      -7433.8095433791

  ----------------------------------- OT ---------------------------------------
  Minimizer      : CG                  : conjugate gradient
  Preconditioner : FULL_ALL            : diagonalization, state selective
  Precond_solver : DEFAULT
  Line search    : 2PNT                : 2 energies, one gradient
  stepsize       :    0.15000000                  energy_gap     :    0.00100000
  eps_taylor     :   0.10000E-15                  max_taylor     :             4
  ----------------------------------- OT ---------------------------------------

  Step     Update method      Time    Convergence         Total energy    Change
  ------------------------------------------------------------------------------
     1 OT CG       0.15E+00   44.6     0.00048357     -7433.8095433830 -3.10E-03
     2 OT LS       0.25E+00    3.9                    -7434.1356518697
     3 OT CG       0.25E+00   10.4     0.00002981     -7434.1960239476 -3.86E-01
     4 OT LS       0.76E-01    3.9                    -7434.1941817338
     5 OT CG       0.76E-01   10.4     0.00000964     -7434.1964762072 -4.52E-04
     6 OT LS       0.63E-01    3.9                    -7434.1965134089
     7 OT CG       0.63E-01   10.4     0.00000338     -7434.1965151886 -3.90E-05
     8 OT LS       0.13E+00    3.9                    -7434.1965223773
     9 OT CG       0.13E+00   11.9     0.00000143     -7434.1965247694 -9.58E-06
    10 OT LS       0.96E-01    3.9                    -7434.1965259429
    11 OT CG       0.96E-01   10.4     0.00000053     -7434.1965260680 -1.30E-06

  *** SCF run converged in    11 steps ***


  Electronic density on regular grids:      -3285.9999971059        0.0000028941
  Core density on regular grids:             3285.9999998090       -0.0000001910
  Total charge density on r-space grids:        0.0000027031
  Total charge density g-space grids:           0.0000027031

  Overlap energy of the core charge distribution:               0.00000830259370
  Self energy of the core charge distribution:             -19132.45788526877732
  Core Hamiltonian energy:                                   5427.95472905637143
  Hartree energy:                                            8004.28953480820019
  Exchange-correlation energy:                              -1731.85008811631906
  Dispersion energy:                                           -2.13282485004934

  Total energy:                                             -7434.19652606797899

  outer SCF iter =    2 RMS gradient =   0.53E-06 energy =      -7434.1965260680
  outer SCF loop converged in   2 iterations or  511 steps


 ENERGY| Total FORCE_EVAL ( QS ) energy (a.u.):            -7434.196526276068653


 ATOMIC FORCES in [a.u.]

 # Atom   Kind   Element          X              Y              Z
      1      1      Ti          0.00000000     0.00000000     0.00000000
      2      2      Si          0.00000000     0.00000000     0.00000000
      3      2      Si          0.00000000     0.00000000     0.00000000
      4      2      Si          0.00000000     0.00000000     0.00000000
      5      2      Si          0.00000000     0.00000000     0.00000000
      6      2      Si          0.00000000     0.00000000     0.00000000
      7      2      Si          0.00000000     0.00000000     0.00000000
      8      2      Si          0.00000000     0.00000000     0.00000000
      9      2      Si          0.00000000     0.00000000     0.00000000
     10      2      Si          0.00000000     0.00000000     0.00000000
     11      2      Si          0.00000000     0.00000000     0.00000000
     12      2      Si          0.00000000     0.00000000     0.00000000
     13      2      Si          0.00000000     0.00000000     0.00000000
     14      2      Si          0.00000000     0.00000000     0.00000000
     15      2      Si          0.00000000     0.00000000     0.00000000
     16      2      Si          0.00000000     0.00000000     0.00000000
     17      2      Si          0.00000000     0.00000000     0.00000000
     18      2      Si          0.00000000     0.00000000     0.00000000
     19      2      Si          0.00000000     0.00000000     0.00000000
     20      2      Si          0.00000000     0.00000000     0.00000000
     21      2      Si          0.00000000     0.00000000     0.00000000
     22      2      Si          0.00000000     0.00000000     0.00000000
     23      2      Si          0.00000000     0.00000000     0.00000000
     24      2      Si          0.00000000     0.00000000     0.00000000
     25      2      Si          0.00000000     0.00000000     0.00000000
     26      2      Si          0.00000000     0.00000000     0.00000000
     27      2      Si          0.00000000     0.00000000     0.00000000
     28      2      Si          0.00000000     0.00000000     0.00000000
     29      2      Si          0.00000000     0.00000000     0.00000000
     30      2      Si          0.00000000     0.00000000     0.00000000
     31      2      Si          0.00000000     0.00000000     0.00000000
     32      2      Si          0.00000000     0.00000000     0.00000000
     33      2      Si          0.00000000     0.00000000     0.00000000
     34      2      Si          0.00000000     0.00000000     0.00000000
     35      2      Si          0.00000000     0.00000000     0.00000000
     36      2      Si          0.00000000     0.00000000     0.00000000
     37      2      Si          0.00000000     0.00000000     0.00000000
     38      2      Si          0.00000000     0.00000000     0.00000000
     39      2      Si          0.00000000     0.00000000     0.00000000
     40      2      Si          0.00000000     0.00000000     0.00000000
     41      2      Si          0.00000000     0.00000000     0.00000000
     42      2      Si          0.00000000     0.00000000     0.00000000
     43      2      Si          0.00000000     0.00000000     0.00000000
     44      2      Si          0.00000000     0.00000000     0.00000000
     45      2      Si          0.00000000     0.00000000     0.00000000
     46      2      Si          0.00000000     0.00000000     0.00000000
     47      2      Si          0.00000000     0.00000000     0.00000000
     48      2      Si          0.00000000     0.00000000     0.00000000
     49      2      Si          0.00000000     0.00000000     0.00000000
     50      2      Si          0.00000000     0.00000000     0.00000000
     51      2      Si          0.00000000     0.00000000     0.00000000
     52      2      Si          0.00000000     0.00000000     0.00000000
     53      2      Si          0.00000000     0.00000000     0.00000000
     54      2      Si          0.00000000     0.00000000     0.00000000
     55      2      Si          0.00000000     0.00000000     0.00000000
     56      2      Si          0.00000000     0.00000000     0.00000000
     57      2      Si          0.00000000     0.00000000     0.00000000
     58      2      Si          0.00000000     0.00000000     0.00000000
     59      2      Si          0.00000000     0.00000000     0.00000000
     60      2      Si          0.00000000     0.00000000     0.00000000
     61      2      Si          0.00000000     0.00000000     0.00000000
     62      2      Si          0.00000000     0.00000000     0.00000000
     63      2      Si          0.00000000     0.00000000     0.00000000
     64      2      Si          0.00000000     0.00000000     0.00000000
     65      2      Si          0.00000000     0.00000000     0.00000000
     66      2      Si          0.00000000     0.00000000     0.00000000
     67      2      Si          0.00000000     0.00000000     0.00000000
     68      2      Si          0.00000000     0.00000000     0.00000000
     69      2      Si          0.00000000     0.00000000     0.00000000
     70      2      Si          0.00000000     0.00000000     0.00000000
     71      2      Si          0.00000000     0.00000000     0.00000000
     72      2      Si          0.00000000     0.00000000     0.00000000
     73      2      Si          0.00000000     0.00000000     0.00000000
     74      2      Si          0.00000000     0.00000000     0.00000000
     75      2      Si          0.00000000     0.00000000     0.00000000
     76      2      Si          0.00000000     0.00000000     0.00000000
     77      2      Si          0.00000000     0.00000000     0.00000000
     78      2      Si          0.00000000     0.00000000     0.00000000
     79      2      Si          0.00000000     0.00000000     0.00000000
     80      2      Si          0.00000000     0.00000000     0.00000000
     81      2      Si          0.00000000     0.00000000     0.00000000
     82      2      Si          0.00000000     0.00000000     0.00000000
     83      2      Si          0.00000000     0.00000000     0.00000000
     84      2      Si          0.00000000     0.00000000     0.00000000
     85      2      Si          0.00000000     0.00000000     0.00000000
     86      2      Si          0.00000000     0.00000000     0.00000000
     87      2      Si          0.00000000     0.00000000     0.00000000
     88      2      Si          0.00000000     0.00000000     0.00000000
     89      2      Si          0.00000000     0.00000000     0.00000000
     90      2      Si          0.00000000     0.00000000     0.00000000
     91      2      Si          0.00000000     0.00000000     0.00000000
     92      2      Si          0.00000000     0.00000000     0.00000000
     93      2      Si          0.00000000     0.00000000     0.00000000
     94      2      Si          0.00000000     0.00000000     0.00000000
     95      2      Si          0.00000000     0.00000000     0.00000000
     96      2      Si          0.00000000     0.00000000     0.00000000
     97      2      Si          0.00000000     0.00000000     0.00000000
     98      2      Si          0.00000000     0.00000000     0.00000000
     99      2      Si          0.00000000     0.00000000     0.00000000
    100      2      Si          0.00000000     0.00000000     0.00000000
    101      2      Si          0.00000000     0.00000000     0.00000000
    102      2      Si          0.00000000     0.00000000     0.00000000
    103      2      Si          0.00000000     0.00000000     0.00000000
    104      2      Si          0.00000000     0.00000000     0.00000000
    105      2      Si          0.00000000     0.00000000     0.00000000
    106      2      Si          0.00000000     0.00000000     0.00000000
    107      2      Si          0.00000000     0.00000000     0.00000000
    108      2      Si          0.00000000     0.00000000     0.00000000
    109      2      Si          0.00000000     0.00000000     0.00000000
    110      2      Si          0.00000000     0.00000000     0.00000000
    111      2      Si          0.00000000     0.00000000     0.00000000
    112      2      Si          0.00000000     0.00000000     0.00000000
    113      2      Si          0.00000000     0.00000000     0.00000000
    114      2      Si          0.00000000     0.00000000     0.00000000
    115      2      Si          0.00000000     0.00000000     0.00000000
    116      2      Si          0.00000000     0.00000000     0.00000000
    117      2      Si          0.00000000     0.00000000     0.00000000
    118      2      Si          0.00000000     0.00000000     0.00000000
    119      2      Si          0.00000000     0.00000000     0.00000000
    120      2      Si          0.00000000     0.00000000     0.00000000
    121      2      Si          0.00000000     0.00000000     0.00000000
    122      2      Si          0.00000000     0.00000000     0.00000000
    123      2      Si          0.00000000     0.00000000     0.00000000
    124      2      Si          0.00000000     0.00000000     0.00000000
    125      2      Si          0.00000000     0.00000000     0.00000000
    126      2      Si          0.00000000     0.00000000     0.00000000
    127      2      Si          0.00000000     0.00000000     0.00000000
    128      2      Si          0.00000000     0.00000000     0.00000000
    129      2      Si          0.00000000     0.00000000     0.00000000
    130      2      Si          0.00000000     0.00000000     0.00000000
    131      2      Si          0.00000000     0.00000000     0.00000000
    132      2      Si          0.00000000     0.00000000     0.00000000
    133      2      Si          0.00000000     0.00000000     0.00000000
    134      2      Si          0.00000000     0.00000000     0.00000000
    135      2      Si          0.00000000     0.00000000     0.00000000
    136      2      Si          0.00000000     0.00000000     0.00000000
    137      2      Si          0.00000000     0.00000000     0.00000000
    138      2      Si          0.00000000     0.00000000     0.00000000
    139      2      Si          0.00000000     0.00000000     0.00000000
    140      2      Si          0.00000000     0.00000000     0.00000000
    141      2      Si          0.00000000     0.00000000     0.00000000
    142      2      Si          0.00000000     0.00000000     0.00000000
    143      2      Si          0.00000000     0.00000000     0.00000000
    144      2      Si          0.00000000     0.00000000     0.00000000
    145      2      Si          0.00000000     0.00000000     0.00000000
    146      2      Si          0.00000000     0.00000000     0.00000000
    147      2      Si          0.00000000     0.00000000     0.00000000
    148      2      Si          0.00000000     0.00000000     0.00000000
    149      2      Si          0.00000000     0.00000000     0.00000000
    150      2      Si          0.00000000     0.00000000     0.00000000
    151      2      Si          0.00000000     0.00000000     0.00000000
    152      2      Si          0.00000000     0.00000000     0.00000000
    153      2      Si          0.00000000     0.00000000     0.00000000
    154      2      Si          0.00000000     0.00000000     0.00000000
    155      2      Si          0.00000000     0.00000000     0.00000000
    156      2      Si          0.00000000     0.00000000     0.00000000
    157      2      Si          0.00000000     0.00000000     0.00000000
    158      2      Si          0.00000000     0.00000000     0.00000000
    159      2      Si          0.00000000     0.00000000     0.00000000
    160      2      Si          0.00000000     0.00000000     0.00000000
    161      2      Si          0.00000000     0.00000000     0.00000000
    162      2      Si          0.00000000     0.00000000     0.00000000
    163      2      Si          0.00000000     0.00000000     0.00000000
    164      2      Si          0.00000000     0.00000000     0.00000000
    165      2      Si          0.00000000     0.00000000     0.00000000
    166      2      Si          0.00000000     0.00000000     0.00000000
    167      2      Si          0.00000000     0.00000000     0.00000000
    168      2      Si          0.00000000     0.00000000     0.00000000
    169      2      Si          0.00000000     0.00000000     0.00000000
    170      2      Si          0.00000000     0.00000000     0.00000000
    171      2      Si          0.00000000     0.00000000     0.00000000
    172      2      Si          0.00000000     0.00000000     0.00000000
    173      2      Si          0.00000000     0.00000000     0.00000000
    174      2      Si          0.00000000     0.00000000     0.00000000
    175      2      Si          0.00000000     0.00000000     0.00000000
    176      2      Si          0.00000000     0.00000000     0.00000000
    177      2      Si          0.00000000     0.00000000     0.00000000
    178      2      Si          0.00000000     0.00000000     0.00000000
    179      2      Si          0.00000000     0.00000000     0.00000000
    180      2      Si          0.00000000     0.00000000     0.00000000
    181      2      Si          0.00000000     0.00000000     0.00000000
    182      2      Si          0.00000000     0.00000000     0.00000000
    183      2      Si          0.00000000     0.00000000     0.00000000
    184      2      Si          0.00000000     0.00000000     0.00000000
    185      2      Si          0.00000000     0.00000000     0.00000000
    186      2      Si          0.00000000     0.00000000     0.00000000
    187      2      Si          0.00000000     0.00000000     0.00000000
    188      2      Si          0.00000000     0.00000000     0.00000000
    189      2      Si          0.00000000     0.00000000     0.00000000
    190      2      Si          0.00000000     0.00000000     0.00000000
    191      2      Si          0.00000000     0.00000000     0.00000000
    192      3      O           0.00000000     0.00000000     0.00000000
    193      3      O           0.00000000     0.00000000     0.00000000
    194      3      O           0.00000000     0.00000000     0.00000000
    195      3      O           0.00000000     0.00000000     0.00000000
    196      3      O           0.00000000     0.00000000     0.00000000
    197      3      O           0.00000000     0.00000000     0.00000000
    198      3      O           0.00000000     0.00000000     0.00000000
    199      3      O           0.00000000     0.00000000     0.00000000
    200      3      O           0.00000000     0.00000000     0.00000000
    201      3      O           0.00000000     0.00000000     0.00000000
    202      3      O           0.00000000     0.00000000     0.00000000
    203      3      O           0.00000000     0.00000000     0.00000000
    204      3      O           0.00000000     0.00000000     0.00000000
    205      3      O           0.00000000     0.00000000     0.00000000
    206      3      O           0.00000000     0.00000000     0.00000000
    207      3      O           0.00000000     0.00000000     0.00000000
    208      3      O           0.00000000     0.00000000     0.00000000
    209      3      O           0.00000000     0.00000000     0.00000000
    210      3      O           0.00000000     0.00000000     0.00000000
    211      3      O           0.00000000     0.00000000     0.00000000
    212      3      O           0.00000000     0.00000000     0.00000000
    213      3      O           0.00000000     0.00000000     0.00000000
    214      3      O           0.00000000     0.00000000     0.00000000
    215      3      O           0.00000000     0.00000000     0.00000000
    216      3      O           0.00000000     0.00000000     0.00000000
    217      3      O           0.00000000     0.00000000     0.00000000
    218      3      O           0.00000000     0.00000000     0.00000000
    219      3      O           0.00000000     0.00000000     0.00000000
    220      3      O           0.00000000     0.00000000     0.00000000
    221      3      O           0.00000000     0.00000000     0.00000000
    222      3      O           0.00000000     0.00000000     0.00000000
    223      3      O           0.00000000     0.00000000     0.00000000
    224      3      O           0.00000000     0.00000000     0.00000000
    225      3      O           0.00000000     0.00000000     0.00000000
    226      3      O           0.00000000     0.00000000     0.00000000
    227      3      O           0.00000000     0.00000000     0.00000000
    228      3      O           0.00000000     0.00000000     0.00000000
    229      3      O           0.00000000     0.00000000     0.00000000
    230      3      O           0.00000000     0.00000000     0.00000000
    231      3      O           0.00000000     0.00000000     0.00000000
    232      3      O           0.00000000     0.00000000     0.00000000
    233      3      O           0.00000000     0.00000000     0.00000000
    234      3      O           0.00000000     0.00000000     0.00000000
    235      3      O           0.00000000     0.00000000     0.00000000
    236      3      O           0.00000000     0.00000000     0.00000000
    237      3      O           0.00000000     0.00000000     0.00000000
    238      3      O           0.00000000     0.00000000     0.00000000
    239      3      O           0.00000000     0.00000000     0.00000000
    240      3      O           0.00000000     0.00000000     0.00000000
    241      3      O           0.00000000     0.00000000     0.00000000
    242      3      O           0.00000000     0.00000000     0.00000000
    243      3      O           0.00000000     0.00000000     0.00000000
    244      3      O           0.00000000     0.00000000     0.00000000
    245      3      O           0.00000000     0.00000000     0.00000000
    246      3      O           0.00000000     0.00000000     0.00000000
    247      3      O           0.00000000     0.00000000     0.00000000
    248      3      O           0.00000000     0.00000000     0.00000000
    249      3      O           0.00000000     0.00000000     0.00000000
    250      3      O           0.00000000     0.00000000     0.00000000
    251      3      O           0.00000000     0.00000000     0.00000000
    252      3      O           0.00000000     0.00000000     0.00000000
    253      3      O           0.00000000     0.00000000     0.00000000
    254      3      O           0.00000000     0.00000000     0.00000000
    255      3      O           0.00000000     0.00000000     0.00000000
    256      3      O           0.00000000     0.00000000     0.00000000
    257      3      O           0.00000000     0.00000000     0.00000000
    258      3      O           0.00000000     0.00000000     0.00000000
    259      3      O           0.00000000     0.00000000     0.00000000
    260      3      O           0.00000000     0.00000000     0.00000000
    261      3      O           0.00000000     0.00000000     0.00000000
    262      3      O           0.00000000     0.00000000     0.00000000
    263      3      O           0.00000000     0.00000000     0.00000000
    264      3      O           0.00000000     0.00000000     0.00000000
    265      3      O           0.00000000     0.00000000     0.00000000
    266      3      O           0.00000000     0.00000000     0.00000000
    267      3      O           0.00000000     0.00000000     0.00000000
    268      3      O           0.00000000     0.00000000     0.00000000
    269      3      O           0.00000000     0.00000000     0.00000000
    270      3      O           0.00000000     0.00000000     0.00000000
    271      3      O           0.00000000     0.00000000     0.00000000
    272      3      O           0.00000000     0.00000000     0.00000000
    273      3      O           0.00000000     0.00000000     0.00000000
    274      3      O           0.00000000     0.00000000     0.00000000
    275      3      O           0.00000000     0.00000000     0.00000000
    276      3      O           0.00000000     0.00000000     0.00000000
    277      3      O           0.00000000     0.00000000     0.00000000
    278      3      O           0.00000000     0.00000000     0.00000000
    279      3      O           0.00000000     0.00000000     0.00000000
    280      3      O           0.00000000     0.00000000     0.00000000
    281      3      O           0.00000000     0.00000000     0.00000000
    282      3      O           0.00000000     0.00000000     0.00000000
    283      3      O           0.00000000     0.00000000     0.00000000
    284      3      O           0.00000000     0.00000000     0.00000000
    285      3      O           0.00000000     0.00000000     0.00000000
    286      3      O           0.00000000     0.00000000     0.00000000
    287      3      O           0.00000000     0.00000000     0.00000000
    288      3      O           0.00000000     0.00000000     0.00000000
    289      3      O           0.00000000     0.00000000     0.00000000
    290      3      O           0.00000000     0.00000000     0.00000000
    291      3      O           0.00000000     0.00000000     0.00000000
    292      3      O           0.00000000     0.00000000     0.00000000
    293      3      O           0.00000000     0.00000000     0.00000000
    294      3      O           0.00000000     0.00000000     0.00000000
    295      3      O           0.00000000     0.00000000     0.00000000
    296      3      O           0.00000000     0.00000000     0.00000000
    297      3      O           0.00000000     0.00000000     0.00000000
    298      3      O           0.00000000     0.00000000     0.00000000
    299      3      O           0.00000000     0.00000000     0.00000000
    300      3      O           0.00000000     0.00000000     0.00000000
    301      3      O           0.00000000     0.00000000     0.00000000
    302      3      O           0.00000000     0.00000000     0.00000000
    303      3      O           0.00000000     0.00000000     0.00000000
    304      3      O           0.00000000     0.00000000     0.00000000
    305      3      O           0.00000000     0.00000000     0.00000000
    306      3      O           0.00000000     0.00000000     0.00000000
    307      3      O           0.00000000     0.00000000     0.00000000
    308      3      O           0.00000000     0.00000000     0.00000000
    309      3      O           0.00000000     0.00000000     0.00000000
    310      3      O           0.00000000     0.00000000     0.00000000
    311      3      O           0.00000000     0.00000000     0.00000000
    312      3      O           0.00000000     0.00000000     0.00000000
    313      3      O           0.00000000     0.00000000     0.00000000
    314      3      O           0.00000000     0.00000000     0.00000000
    315      3      O           0.00000000     0.00000000     0.00000000
    316      3      O           0.00000000     0.00000000     0.00000000
    317      3      O           0.00000000     0.00000000     0.00000000
    318      3      O           0.00000000     0.00000000     0.00000000
    319      3      O           0.00000000     0.00000000     0.00000000
    320      3      O           0.00000000     0.00000000     0.00000000
    321      3      O           0.00000000     0.00000000     0.00000000
    322      3      O           0.00000000     0.00000000     0.00000000
    323      3      O           0.00000000     0.00000000     0.00000000
    324      3      O           0.00000000     0.00000000     0.00000000
    325      3      O           0.00000000     0.00000000     0.00000000
    326      3      O           0.00000000     0.00000000     0.00000000
    327      3      O           0.00000000     0.00000000     0.00000000
    328      3      O           0.00000000     0.00000000     0.00000000
    329      3      O           0.00000000     0.00000000     0.00000000
    330      3      O           0.00000000     0.00000000     0.00000000
    331      3      O           0.00000000     0.00000000     0.00000000
    332      3      O           0.00000000     0.00000000     0.00000000
    333      3      O           0.00000000     0.00000000     0.00000000
    334      3      O           0.00000000     0.00000000     0.00000000
    335      3      O           0.00000000     0.00000000     0.00000000
    336      3      O           0.00000000     0.00000000     0.00000000
    337      3      O           0.00000000     0.00000000     0.00000000
    338      3      O           0.00000000     0.00000000     0.00000000
    339      3      O           0.00000000     0.00000000     0.00000000
    340      3      O           0.00000000     0.00000000     0.00000000
    341      3      O           0.00000000     0.00000000     0.00000000
    342      3      O           0.00000000     0.00000000     0.00000000
    343      3      O           0.00000000     0.00000000     0.00000000
    344      3      O           0.00000000     0.00000000     0.00000000
    345      3      O           0.00000000     0.00000000     0.00000000
    346      3      O           0.00000000     0.00000000     0.00000000
    347      3      O           0.00000000     0.00000000     0.00000000
    348      3      O           0.00000000     0.00000000     0.00000000
    349      3      O           0.00000000     0.00000000     0.00000000
    350      3      O           0.00000000     0.00000000     0.00000000
    351      3      O           0.00000000     0.00000000     0.00000000
    352      3      O           0.00000000     0.00000000     0.00000000
    353      3      O           0.00000000     0.00000000     0.00000000
    354      3      O           0.00000000     0.00000000     0.00000000
    355      3      O           0.00000000     0.00000000     0.00000000
    356      3      O           0.00000000     0.00000000     0.00000000
    357      3      O           0.00000000     0.00000000     0.00000000
    358      3      O           0.00000000     0.00000000     0.00000000
    359      3      O           0.00000000     0.00000000     0.00000000
    360      3      O           0.00000000     0.00000000     0.00000000
    361      3      O           0.00000000     0.00000000     0.00000000
    362      3      O           0.00000000     0.00000000     0.00000000
    363      3      O           0.00000000     0.00000000     0.00000000
    364      3      O           0.00000000     0.00000000     0.00000000
    365      3      O           0.00000000     0.00000000     0.00000000
    366      3      O           0.00000000     0.00000000     0.00000000
    367      3      O           0.00000000     0.00000000     0.00000000
    368      3      O           0.00000000     0.00000000     0.00000000
    369      3      O           0.00000000     0.00000000     0.00000000
    370      3      O           0.00000000     0.00000000     0.00000000
    371      3      O           0.00000000     0.00000000     0.00000000
    372      3      O           0.00000000     0.00000000     0.00000000
    373      3      O           0.00000000     0.00000000     0.00000000
    374      3      O           0.00000000     0.00000000     0.00000000
    375      3      O           0.00000000     0.00000000     0.00000000
    376      3      O           0.00000000     0.00000000     0.00000000
    377      3      O           0.00000000     0.00000000     0.00000000
    378      3      O           0.00000000     0.00000000     0.00000000
    379      3      O           0.00000000     0.00000000     0.00000000
    380      3      O           0.00000000     0.00000000     0.00000000
    381      3      O           0.00000000     0.00000000     0.00000000
[...]
 flops   416 x   256 x   139         582821511168       0.0%    100.0%      0.0%
 flops    26 x    32 x    13         614312674560       0.0%    100.0%      0.0%
 flops    13 x    32 x    26         614312674560       0.0%    100.0%      0.0%
 flops   395 x   256 x   160         637007462400       0.0%    100.0%      0.0%
 flops    13 x    11 x    13         682226802972       0.0%    100.0%      0.0%
 flops   395 x   267 x   128         708670801920       0.0%    100.0%      0.0%
 flops  2025 x   267 x   139         809557002900       0.0%    100.0%      0.0%
 flops  2028 x   267 x   139         810756346608       0.0%    100.0%      0.0%
 flops     5 x    13 x   128         838568939520       0.0%    100.0%      0.0%
 flops    13 x     5 x   128         843297761280       0.0%    100.0%      0.0%
 flops   416 x   288 x   139         983511300096       0.0%    100.0%      0.0%
 flops   416 x   267 x   160        1049550428160       0.0%    100.0%      0.0%
 flops   395 x   256 x   667        1071598571520       0.0%    100.0%      0.0%
 flops   395 x   288 x   160        1074950092800       0.0%    100.0%      0.0%
 flops   395 x   256 x   683        1097304084480       0.0%    100.0%      0.0%
 flops   395 x   267 x   675        1131048846000       0.0%    100.0%      0.0%
 flops   395 x   256 x   128        1358949253120       0.0%    100.0%      0.0%
 flops  2025 x   256 x   139        1552408934400       0.0%    100.0%      0.0%
 flops  2028 x   256 x   139        1554708799488       0.0%    100.0%      0.0%
 flops   416 x   267 x   667        1765594291968       0.0%    100.0%      0.0%
 flops   416 x   267 x   683        1807947378432       0.0%    100.0%      0.0%
 flops   395 x   288 x   667        1808322589440       0.0%    100.0%      0.0%
 flops   395 x   288 x   683        1851700642560       0.0%    100.0%      0.0%
 flops   416 x   256 x   160        2012621045760       0.0%    100.0%      0.0%
 flops   395 x   256 x   675        2168902656000       0.0%    100.0%      0.0%
 flops   416 x   267 x   128        2239040913408       0.0%    100.0%      0.0%
 flops    13 x    13 x   139        2244437305942       0.0%    100.0%      0.0%
 flops   395 x   288 x   128        2293226864640       0.0%    100.0%      0.0%
 flops  2025 x   267 x   667        2544606867600       0.0%    100.0%      0.0%
 flops  2028 x   267 x   667        2548376655552       0.0%    100.0%      0.0%
 flops  2025 x   267 x   683        2605646912400       0.0%    100.0%      0.0%
 flops  2028 x   267 x   683        2609507130048       0.0%    100.0%      0.0%
 flops  2025 x   288 x   139        2619690076800       0.0%    100.0%      0.0%
 flops  2028 x   288 x   139        2623571099136       0.0%    100.0%      0.0%
 flops  2025 x   267 x   160        2795592528000       0.0%    100.0%      0.0%
 flops  2028 x   267 x   160        2799734146560       0.0%    100.0%      0.0%
 flops   416 x   256 x   667        3385708904448       0.0%    100.0%      0.0%
 flops   416 x   288 x   160        3396298014720       0.0%    100.0%      0.0%
 flops   416 x   256 x   683        3466925309952       0.0%    100.0%      0.0%
 flops   416 x   267 x   675        3573541670400       0.0%    100.0%      0.0%
 flops   395 x   288 x   675        3660023232000       0.0%    100.0%      0.0%
 flops   416 x   256 x   128        4293591564288       0.0%    100.0%      0.0%
 flops  2025 x   256 x   667        4879545753600       0.0%    100.0%      0.0%
 flops  2028 x   256 x   667        4886774710272       0.0%    100.0%      0.0%
 flops  2025 x   256 x   683        4996596326400       0.0%    100.0%      0.0%
 flops  2028 x   256 x   683        5003998691328       0.0%    100.0%      0.0%
 flops  2025 x   267 x   675        5150253780000       0.0%    100.0%      0.0%
 flops  2028 x   267 x   675        5157883785600       0.0%    100.0%      0.0%
 flops    13 x    32 x     5        5175184297920       0.0%    100.0%      0.0%
 flops     5 x    32 x    13        5175184297920       0.0%    100.0%      0.0%
 flops  2025 x   256 x   160        5360836608000       0.0%    100.0%      0.0%
 flops  2028 x   256 x   160        5368778588160       0.0%    100.0%      0.0%
 flops   416 x   288 x   667        5713383776256       0.0%    100.0%      0.0%
 flops   416 x   288 x   683        5850436460544       0.0%    100.0%      0.0%
 flops  2025 x   267 x   128        5963930726400       0.0%    100.0%      0.0%
 flops  2028 x   267 x   128        5972766179328       0.0%    100.0%      0.0%
 flops   416 x   256 x   675        6852634214400       0.0%    100.0%      0.0%
 flops   416 x   288 x   128        7245435764736       0.0%    100.0%      0.0%
 flops    13 x    13 x   160        7750574869440       0.0%    100.0%      0.0%
 flops  2025 x   288 x   667        8234233459200       0.0%    100.0%      0.0%
 flops  2028 x   288 x   667        8246432323584       0.0%    100.0%      0.0%
 flops  2025 x   288 x   683        8431756300800       0.0%    100.0%      0.0%
 flops  2028 x   288 x   683        8444247791616       0.0%    100.0%      0.0%
 flops  2025 x   288 x   160        9046411776000       0.0%    100.0%      0.0%
 flops  2028 x   288 x   160        9059813867520       0.0%    100.0%      0.0%
 flops  2025 x   256 x   675        9876142080000       0.0%    100.0%      0.0%
 flops  2028 x   256 x   675        9890773401600       0.0%    100.0%      0.0%
 flops  2025 x   256 x   128       11436451430400       0.0%    100.0%      0.0%
 flops  2028 x   256 x   128       11453394321408       0.0%    100.0%      0.0%
 flops   416 x   288 x   675       11563820236800       0.0%    100.0%      0.0%
 flops    13 x    13 x   128       16534559721472       0.0%    100.0%      0.0%
 flops  2025 x   288 x   675       16665989760000       0.0%    100.0%      0.0%
 flops  2028 x   288 x   675       16690680115200       0.0%    100.0%      0.0%
 flops  2025 x   288 x   128       19299011788800       0.0%    100.0%      0.0%
 flops  2028 x   288 x   128       19327602917376       0.0%    100.0%      0.0%
 flops    13 x    32 x    13      101217649313664       0.0%    100.0%      0.0%
 flops inhomo. stacks              95255790917760     100.0%      0.0%      0.0%
 flops total                       570.739041E+12      16.7%     83.3%      0.0%
 flops max/rank                     25.090615E+12      16.7%     83.3%      0.0%
 matmuls inhomo. stacks                    275328     100.0%      0.0%      0.0%
 matmuls total                        13152893896       0.0%    100.0%      0.0%
 number of processed stacks              18184248       1.5%     98.5%      0.0%
 average stack size                                     1.0     734.4       0.0
 marketing flops                   957.205805E+12
 -------------------------------------------------------------------------------
 # multiplications                          11380
 max memory usage/rank             900.534272E+06
 # max total images/rank                        3
 # max 3D layers                                1
 # MPI messages exchanged                 5189280
 MPI messages size (bytes):
  total size                         9.108945E+12
  min size                           0.000000E+00
  max size                          11.291904E+06
  average size                       1.755339E+06
 MPI breakdown and total messages size (bytes):
             size <=      128               27984                        0
       128 < size <=     8192                   0                        0
      8192 < size <=    32768                1056                 34603008
     32768 < size <=   131072                 528                 20673312
    131072 < size <=  4194304             4948032            6790823974120
   4194304 < size <= 16777216              211680            2318151286080
  16777216 < size                               0                        0
 -------------------------------------------------------------------------------

 *** WARNING in dbcsr_mm.F:295 :: Using a non-square number of MPI ranks ***
 *** might lead to poor performance. Used ranks: 24 Suggested: 25 49     ***

 -------------------------------------------------------------------------------
 -                                                                             -
 -                      DBCSR MESSAGE PASSING PERFORMANCE                      -
 -                                                                             -
 -------------------------------------------------------------------------------
 ROUTINE             CALLS      AVE VOLUME [Bytes]
 MP_Group             1310
 MP_Bcast              124                     12.
 MP_Allreduce        57568                    122.
 MP_Alltoall         50298                 742836.
 MP_Wait            637280
 MP_ISend           524600                 792787.
 MP_IRecv           515962                 798960.
 MP_Memory         1037980
 -------------------------------------------------------------------------------

 MEMORY| Estimated peak process memory [MiB]                                 859

 -------------------------------------------------------------------------------
 -                                                                             -
 -                         MESSAGE PASSING PERFORMANCE                         -
 -                                                                             -
 -------------------------------------------------------------------------------

 ROUTINE             CALLS      AVE VOLUME [Bytes]
 MP_Group                5
 MP_Bcast            35126                 240814.
 MP_Allreduce        92528                   1241.
 MP_Sync                 5
 MP_Alltoall         13582               33968066.
 MP_SendRecv          3864                  16114.
 MP_ISendRecv        85077                 127093.
 MP_Wait            167857
 MP_ISend            73894                 802469.
 MP_IRecv            73894                 802805.
 MP_Recv              5751                1414523.
 -------------------------------------------------------------------------------


 -------------------------------------------------------------------------------
 -                                                                             -
 -                           R E F E R E N C E S                               -
 -                                                                             -
 -------------------------------------------------------------------------------
 
 CP2K version 7.1, the CP2K developers group (2019).
 CP2K is freely available from https://www.cp2k.org/ .

 Schuett, Ole; Messmer, Peter; Hutter, Juerg; VandeVondele, Joost. 
 Electronic Structure Calculations on Graphics Processing Units, John
 Wiley & Sons, Ltd, 173-190 (2016). 
 GPU-Accelerated Sparse Matrix-Matrix Multiplication for
 Linear Scaling Density Functional Theory.
 https://dx.doi.org/10.1002/9781118670712.ch8

 Borstnik, U; VandeVondele, J; Weber, V; Hutter, J. 
 PARALLEL COMPUTING, 40 (5-6), 47-58 (2014). 
 Sparse matrix multiplication: The distributed block-compressed sparse
 row library.
 https://dx.doi.org/10.1016/j.parco.2014.03.012

 Hutter, J; Iannuzzi, M; Schiffmann, F; VandeVondele, J. 
 WIREs Comput Mol Sci., 4 (1), 15-25 (2014). 
 CP2K: atomistic simulations of condensed matter systems.
 https://dx.doi.org/10.1002/wcms.1159

 Grimme, S; Ehrlich, S; Goerigk, L. 
 JOURNAL OF COMPUTATIONAL CHEMISTRY, 32, 1456 (2011). 
 Effect of the damping function in dispersion corrected density functional theory.
 https://dx.doi.org/10.1002/jcc.21759

 Grimme, S; Antony, J; Ehrlich, S; Krieg, H. 
 JOURNAL OF CHEMICAL PHYSICS, 132 (15), 154104 (2010). 
 A consistent and accurate ab initio parametrization of density
 functional dispersion correction (DFT-D) for the 94 elements H-Pu.
 https://dx.doi.org/10.1063/1.3382344

 VandeVondele, J; Hutter, J. 
 JOURNAL OF CHEMICAL PHYSICS, 127 (11), 114105 (2007). 
 Gaussian basis sets for accurate calculations on molecular systems in
 gas and condensed phases.
 https://dx.doi.org/10.1063/1.2770708

 Krack, M. 
 THEORETICAL CHEMISTRY ACCOUNTS, 114 (1-3), 145-152 (2005). 
 Pseudopotentials for H to Kr optimized for gradient-corrected
 exchange-correlation functionals.
 https://dx.doi.org/10.1007/s00214-005-0655-y

 VandeVondele, J; Krack, M; Mohamed, F; Parrinello, M; Chassaing, T;
 Hutter, J. COMPUTER PHYSICS COMMUNICATIONS, 167 (2), 103-128 (2005). 
 QUICKSTEP: Fast and accurate density functional calculations using a
 mixed Gaussian and plane waves approach.
 https://dx.doi.org/10.1016/j.cpc.2004.12.014

 Frigo, M; Johnson, SG. 
 PROCEEDINGS OF THE IEEE, 93 (2), 216-231 (2005). 
 The design and implementation of FFTW3.
 https://dx.doi.org/10.1109/JPROC.2004.840301

 Kolafa, J. 
 JOURNAL OF COMPUTATIONAL CHEMISTRY, 25 (3), 335-342 (2004). 
 Time-reversible always stable predictor-corrector method for molecular dynamics of polarizable molecules.
 https://dx.doi.org/10.1002/jcc.10385

 VandeVondele, J; Hutter, J. 
 JOURNAL OF CHEMICAL PHYSICS, 118 (10), 4365-4369 (2003). 
 An efficient orbital transformation method for electronic structure
 calculations.
 https://dx.doi.org/10.1063/1.1543154

 Hartwigsen, C; Goedecker, S; Hutter, J. 
 PHYSICAL REVIEW B, 58 (7), 3641-3662 (1998). 
 Relativistic separable dual-space Gaussian pseudopotentials from H to Rn.
 https://dx.doi.org/10.1103/PhysRevB.58.3641

 Lippert, G; Hutter, J; Parrinello, M. 
 MOLECULAR PHYSICS, 92 (3), 477-487 (1997). 
 A hybrid Gaussian and plane wave density functional scheme.
 https://dx.doi.org/10.1080/002689797170220

 Perdew, JP; Burke, K; Ernzerhof, M. 
 PHYSICAL REVIEW LETTERS, 77 (18), 3865-3868 (1996). 
 Generalized gradient approximation made simple.
 https://dx.doi.org/10.1103/PhysRevLett.77.3865

 Goedecker, S; Teter, M; Hutter, J. 
 PHYSICAL REVIEW B, 54 (3), 1703-1710 (1996). 
 Separable dual-space Gaussian pseudopotentials.
 https://dx.doi.org/10.1103/PhysRevB.54.1703


 -------------------------------------------------------------------------------
 -                                                                             -
 -                                T I M I N G                                  -
 -                                                                             -
 -------------------------------------------------------------------------------
 SUBROUTINE                       CALLS  ASD         SELF TIME        TOTAL TIME
                                MAXIMUM       AVERAGE  MAXIMUM  AVERAGE  MAXIMUM
 CP2K                                 1  1.0    0.018    0.021 7732.709 7732.733
 cp_geo_opt                           1  2.0    0.000    0.000 7731.410 7731.433
 geoopt_bfgs                          1  3.0    0.252    0.282 7731.410 7731.433
 cp_eval_at                          43  4.0    0.009    0.074 7701.467 7701.530
 qs_forces                           42  5.0    0.013    0.015 7655.970 7655.993
 qs_energies                         43  6.0    0.004    0.005 7306.397 7306.735
 scf_env_do_scf                      43  7.0    0.003    0.005 7028.931 7028.988
 scf_env_do_scf_inner_loop          751  8.0    0.032    0.070 5535.614 5542.278
 rebuild_ks_matrix                  793  9.8    0.004    0.005 2812.075 2815.905
 qs_ks_build_kohn_sham_matrix       793 10.8    0.106    0.119 2812.071 2815.901
 qs_ks_update_qs_env                795  9.0    0.006    0.007 2514.138 2517.493
 dbcsr_multiply_generic           11380 13.7    0.877    0.976 1882.763 1901.374
 qs_scf_new_mos                     751  9.0    0.006    0.013 1811.991 1824.381
 qs_scf_loop_do_ot                  751 10.0    0.005    0.008 1811.985 1824.368
 ot_scf_mini                        751 11.0    0.026    0.033 1687.499 1690.271
 multiply_cannon                  11380 14.7    2.307    2.663 1556.283 1617.014
 qs_rho_update_rho                  794  9.1    0.005    0.008 1485.168 1488.980
 calculate_rho_elec                 794 10.1 1023.763 1070.595 1485.163 1488.975
 init_scf_loop                       44  8.0    0.002    0.003 1485.350 1485.433
 multiply_cannon_multrec         136560 15.7 1335.069 1399.447 1335.201 1399.590
 sum_up_and_integrate               439 11.7    2.146    2.263 1355.127 1355.356
 integrate_v_rspace                 439 12.7 1151.689 1170.112 1352.980 1353.254
 prepare_preconditioner              44  9.0    0.000    0.001 1240.125 1240.786
 qs_vxc_create                      793 11.8    0.015    0.017 1201.180 1201.875
 make_preconditioner                 44 10.0    0.001    0.002 1198.811 1199.201
 make_full_all                       44 11.0    0.070    0.100 1160.053 1160.141
 pw_transfer                      13162 13.3    1.060    1.230 1120.631 1130.591
 fft_wrap_pw1pw2                  11576 14.4    0.151    0.180 1103.737 1113.714
 fft_wrap_pw1pw2_180               6644 15.6   93.757   95.684 1064.054 1074.521
 ot_mini                            751 12.0    0.005    0.007  999.164 1004.598
 cp_fm_syevd                        686 13.8    0.011    0.016  874.235  876.702
 cp_fm_syevd_base                   686 14.8  874.223  876.689  874.223  876.689
 xc_rho_set_and_dset_create         793 13.8    6.609    6.714  845.846  875.770
 fft3d_ps                         11576 16.4  461.620  468.338  825.757  837.143
 xc_vxc_pw_create                   439 12.7   21.185   23.681  813.580  814.272
 apply_preconditioner_dbcsr         441 14.0    0.001    0.001  564.590  572.829
 apply_all                          441 15.0    1.074    1.131  564.589  572.828
 ot_new_cg_direction                397 13.0    0.008    0.010  522.818  522.844
 qs_ot_get_derivative               397 13.0    0.004    0.006  471.010  474.651
 density_rs2pw                      794 11.1    0.054    0.066  415.317  452.379
 xc_functional_eval                 793 14.8    0.009    0.011  386.996  417.092
 pbe_lda_eval                       793 15.8  386.987  417.083  386.987  417.083
 xc_exc_calc                        354 13.0    1.499    1.524  387.585  387.601
 qs_ot_get_p                        795 11.9    0.005    0.007  292.914  303.736
 qs_ks_update_qs_env_forces          42  6.0    0.000    0.000  300.851  301.296
 rs_pw_transfer                    6250 13.0    0.094    0.110  208.465  244.311
 x_to_yz                           5807 18.1  174.890  176.756  233.975  239.328
 mp_waitall_1                    731243 17.1  194.271  220.236  194.271  220.236
 qs_ot_get_orbitals                 751 12.0    0.005    0.006  215.262  219.527
 make_m2s                         22760 14.7    0.854    0.987  215.415  217.833
 init_scf_run                        43  7.0    0.001    0.002  208.432  208.440
 scf_env_initial_rho_setup           43  8.0    0.000    0.001  208.431  208.439
 qs_ot_get_derivative_diag          255 14.0    0.008    0.010  205.082  207.909
 wfi_extrapolate                     43  9.0    0.007    0.009  204.304  204.305
 cp_gemm                            706 10.2    0.003    0.004  198.862  199.784
 cp_gemm_fm_gemm                    706 11.2    0.002    0.003  198.859  199.782
 cp_fm_gemm                         706 12.2  198.857  199.780  198.857  199.780
 qs_ot_p2m_diag                     512 13.0    7.455    7.999  164.469  165.593
 potential_pw2rs                    439 13.7    0.160    0.224  163.417  163.634
 -------------------------------------------------------------------------------

 The number of warnings for this run is : 2
 
 -------------------------------------------------------------------------------
  **** **** ******  **  PROGRAM ENDED AT                 2022-07-05 21:14:15.864
 ***** ** ***  *** **   PROGRAM RAN ON             node1866.palmetto.clemson.edu
 **    ****   ******    PROGRAM RAN BY                                   xiutinc
 ***** **    ** ** **   PROGRAM PROCESS ID                               1352174
  **** **  *******  **  PROGRAM STOPPED IN  /scratch1/xiutinc/CP2K-5305488.pbs02
