     657
 i =        1, E =     -7434.1965846550
 Ti        10.6072000000       15.3106000000       12.9257000000
 Si        19.6131000000        3.0436300000        0.9692800000
 Si        21.3892000000        1.2884700000        7.0773300000
 Si        19.6130000000        3.0648700000        5.2978200000
 Si        21.3681000000        1.2885400000       11.4059000000
 Si        17.4351000000        7.3966200000        3.1439100000
 Si        17.0363000000       23.5434000000        9.2522600000
 Si        17.4349000000       23.1446000000        3.1229100000
 Si         1.2882800000       23.5435000000        9.2308600000
 Si         3.0646000000        0.8904600000       11.0072000000
 Si         6.9981500000       21.3894000000        1.3678500000
 Si         3.0459100000       13.1088000000        7.4632600000
 Si        23.5432000000        9.1518500000        1.3679000000
 Si         3.0436800000        5.2185800000       11.0074000000
 Si        11.3298000000        9.1747600000        4.9035700000
 Si         1.2878200000       21.3685000000       11.4058000000
 Si         3.0646600000       19.6135000000        5.2969900000
 Si         1.2883200000       21.3896000000        7.0769300000
 Si         3.0436400000       19.6131000000        0.9691900000
 Si        23.5429000000        1.2886300000        9.2311500000
 Si        23.1445000000       17.4347000000        3.1230000000
 Si        23.5428000000       17.0359000000        9.2519600000
 Si         7.3970400000       17.4346000000        3.1442500000
 Si         9.1527500000        6.9991100000        4.8995400000
 Si        17.4347000000        3.0650200000        7.4761200000
 Si        23.1446000000       15.2811000000        0.9692900000
 Si        21.3680000000       17.0361000000        7.0773400000
 Si        23.1444000000       15.2599000000        5.2977400000
 Si        21.3891000000       17.0361000000       11.4060000000
 Si         0.8898300000       10.9280000000        3.1439900000
 Si         1.2877400000       19.2145000000        9.2519400000
 Si         0.8896700000       19.6131000000        3.1226800000
 Si        17.0454000000       19.2215000000        9.2274800000
 Si        15.2811000000        5.2188100000        7.4761800000
 Si         6.9985100000        9.1521000000        4.8989900000
 Si         4.8189000000        9.1732200000       11.4041000000
 Si         3.0432500000       10.9267000000        5.2964500000
 Si         4.8189600000        9.1497600000        7.0752300000
 Si         3.0648500000       10.9281000000        0.9695300000
 Si         6.9983900000        4.8199200000        9.2310600000
 Si         7.3982300000       13.1040000000        3.1210400000
 Si         6.9738100000       13.5158000000        9.2613600000
 Si        23.1447000000       13.1061000000        3.1441700000
 Si        21.3683000000       11.3267000000        1.3679600000
 Si        17.4351000000       15.2592000000       11.0074000000
 Si        21.3894000000       23.5433000000        4.8992100000
 Si         0.8897100000        3.0649800000       11.0074000000
 Si        21.3894000000        6.9981800000        1.3679300000
 Si        13.1063000000        3.0438200000        7.4761200000
 Si        10.9281000000        3.0649000000        0.9694300000
 Si         9.1519500000        4.8201600000        7.0772500000
 Si        10.9282000000        3.0437800000        5.2978400000
 Si         9.1732600000        4.8194700000       11.4055000000
 Si        13.1062000000       23.1446000000        3.1440500000
 Si        13.5053000000        6.9998700000        9.2519200000
 Si        13.1061000000        7.3971700000        3.1236200000
 Si         4.8199200000        6.9979500000        9.2307200000
 Si         3.0626400000       17.4355000000        7.4745600000
 Si        19.2148000000       21.3684000000        4.8988800000
 Si        17.0368000000       21.3897000000       11.4058000000
 Si        15.2599000000       23.1450000000        5.2975800000
 Si        17.0368000000       21.3700000000        7.0760200000
 Si        15.2812000000       23.1446000000        0.9692500000
 Si        19.2148000000       17.0358000000        9.2310600000
 Si        19.6131000000        0.8899200000        3.1229700000
 Si        19.2143000000        1.2885100000        9.2522300000
 Si        10.9281000000        0.8899500000        3.1441700000
 Si         9.1518300000       23.5432000000        1.3678900000
 Si         5.2187100000        3.0440100000       11.0075000000
 Si         9.1734900000       11.3280000000        4.9008500000
 Si        13.1921000000       15.2774000000       10.8341000000
 Si         9.1729300000       19.2144000000        1.3678700000
 Si         0.8899500000       15.2593000000        7.4757200000
 Si         7.3967900000       15.2598000000        0.9696400000
 Si         9.1713700000       13.5064000000        7.0862500000
 Si         7.3878700000       15.2815000000        5.2902800000
 Si         5.2188500000       19.6127000000        3.1439400000
 Si         4.8136700000       11.3234000000        9.2454000000
 Si         5.2186700000       10.9281000000        3.1229600000
 Si        13.5200000000       11.3117000000        9.2137900000
 Si        15.2828000000       13.1037000000       11.0070000000
 Si        19.2145000000        9.1730000000        1.3679400000
 Si        15.2600000000        0.8900500000        7.4760600000
 Si        11.3267000000       21.3682000000        1.3678700000
 Si        15.2801000000       17.4406000000       10.9898000000
 Si        23.5429000000       21.3893000000        4.8990400000
 Si        13.5045000000        9.1526200000       11.4056000000
 Si        15.2819000000        7.3949800000        5.2965000000
 Si        13.5181000000        9.1780200000        7.0802200000
 Si        15.2598000000        7.3967600000        0.9695900000
 Si        11.4370000000       13.5260000000        9.1762100000
 Si        10.9281000000        5.2188800000        3.1230900000
 Si        11.3272000000        4.8203200000        9.2522800000
 Si        19.6132000000        5.2185600000        3.1441500000
 Si        21.3682000000       19.2144000000        4.8992400000
 Si         5.1955400000       15.2800000000        7.4220500000
 Si        23.1445000000        3.0648300000       13.1857000000
 Si        21.3682000000        4.8199400000       19.2940000000
 Si        23.1445000000        3.0437400000       17.5144000000
 Si        21.3894000000        4.8198500000       23.6227000000
 Si         0.8892100000       23.1447000000       15.3607000000
 Si         1.2883400000        6.9980600000       21.4691000000
 Si         0.8897100000        7.3966600000       15.3395000000
 Si        17.0364000000        6.9980800000       21.4479000000
 Si        15.2812000000       17.4344000000       19.6929000000
 Si         6.9940100000       21.3747000000       17.1185000000
 Si         4.8198100000       21.3895000000       23.6231000000
 Si         3.0428600000       23.1450000000       17.5147000000
 Si         4.8183600000       21.3689000000       19.2956000000
 Si         3.0639900000       23.1452000000       13.1854000000
 Si         6.9978600000       17.0363000000       21.4487000000
 Si         7.3969900000        0.8908100000       15.3395000000
 Si         6.9982500000        1.2886400000       21.4690000000
 Si        23.1443000000        0.8901300000       15.3606000000
 Si        21.3680000000       23.5434000000       13.5843000000
 Si        17.4350000000        3.0436500000       23.2241000000
 Si        21.3891000000       11.3267000000       17.1157000000
 Si         0.8896000000       15.2811000000       23.2242000000
 Si        21.3891000000       19.2143000000       13.5842000000
 Si        13.1066000000       15.2594000000       19.6921000000
 Si        19.6128000000       15.2596000000       13.1853000000
 Si        21.3893000000       13.5048000000       19.2939000000
 Si        19.6130000000       15.2810000000       17.5143000000
 Si        21.3681000000       13.5049000000       23.6227000000
 Si        17.4346000000       19.6127000000       15.3596000000
 Si        17.0361000000       11.3266000000       21.4684000000
 Si        17.4331000000       10.9277000000       15.3394000000
 Si         1.2882900000       11.3266000000       21.4479000000
 Si         3.0645800000       13.1061000000       23.2242000000
 Si         6.9842200000        9.1393200000       13.5861000000
 Si         3.0435000000        0.8902800000       19.6929000000
 Si        23.5426000000       21.3683000000       13.5844000000
 Si         3.0433400000       17.4348000000       23.2244000000
 Si        11.3231000000       21.3861000000       17.1298000000
 Si         1.2883900000        9.1517500000       23.6228000000
 Si         3.0633800000        7.3961700000       17.5154000000
 Si         1.2880600000        9.1729600000       19.2942000000
 Si         3.0433600000        7.3961200000       13.1858000000
 Si        23.5430000000       13.5049000000       21.4478000000
 Si        23.1445000000        5.2185600000       15.3395000000
 Si        23.5430000000        4.8198900000       21.4690000000
 Si         7.3970500000        5.2179800000       15.3612000000
 Si         9.1509200000       19.2447000000       17.1517000000
 Si        17.4344000000       15.2802000000       19.6923000000
 Si         7.3966800000        3.0443300000       13.1856000000
 Si         9.1730300000        1.2888400000       19.2944000000
 Si         7.3966400000        3.0649800000       17.5146000000
 Si         9.1519300000        1.2884600000       23.6228000000
 Si         5.2137500000        7.3906900000       15.3637000000
 Si         4.8197400000       23.5437000000       21.4695000000
 Si         5.2174000000       23.1464000000       15.3391000000
 Si        13.5050000000       23.5435000000       21.4483000000
 Si        15.2813000000        0.8899900000       23.2242000000
 Si        19.2144000000       21.3895000000       13.5843000000
 Si        15.2590000000       13.1032000000       19.6888000000
 Si        11.3255000000        9.1486600000       13.5854000000
 Si        15.2601000000        5.2185500000       23.2241000000
 Si        23.5429000000        9.1729200000       17.1158000000
 Si        13.5049000000       21.3683000000       23.6228000000
 Si        15.2830000000       19.6136000000       17.5158000000
 Si        13.5067000000       21.3897000000       19.2958000000
 Si        15.2594000000       19.6078000000       13.1809000000
 Si        11.3269000000        1.2884800000       21.4480000000
 Si        10.9226000000       17.4871000000       15.3955000000
 Si        11.3274000000       17.0359000000       21.4693000000
 Si        19.6131000000       17.4346000000       15.3604000000
 Si        21.3680000000        6.9982100000       17.1157000000
 Si         5.2184600000        3.0648800000       19.6927000000
 Si         9.1525500000       17.0330000000       19.2965000000
 Si        10.9287000000       15.2652000000       17.5158000000
 Si         9.1731600000       17.0363000000       23.6230000000
 Si        13.1064000000       10.9170000000       15.3673000000
 Si        13.5051000000       19.2145000000       21.4691000000
 Si        13.1109000000       19.6186000000       15.3414000000
 Si         4.8197600000       19.2144000000       21.4485000000
 Si         3.0645700000        5.2183400000       19.6929000000
 Si        19.2142000000        9.1519500000       17.1156000000
 Si        17.0363000000        9.1730600000       23.6225000000
 Si        15.2525000000       10.9166000000       17.5094000000
 Si        17.0370000000        9.1514900000       19.2944000000
 Si        15.2789000000       10.9280000000       13.1875000000
 Si        19.2145000000        4.8198800000       21.4478000000
 Si        19.6126000000       13.1060000000       15.3393000000
 Si        19.2143000000       13.5048000000       21.4689000000
 Si        10.8711000000       13.0412000000       15.3677000000
 Si         9.1299600000       11.2871000000       13.6087000000
 Si         5.2183100000       15.2599000000       23.2245000000
 Si         9.1735000000       23.5440000000       17.1161000000
 Si        13.1064000000        3.0648400000       23.2242000000
 Si         9.1627400000        6.9905700000       13.5831000000
 Si         0.8895600000        3.0437100000       19.6927000000
  O        24.3537000000        3.5586400000       12.2167000000
  O        20.8743000000        3.5587200000        0.0794800000
  O        20.8742000000        2.5495600000        6.1877200000
  O        18.3248000000        8.6577500000        2.6289100000
  O        15.7751000000        0.0000400000        8.7372500000
  O        18.3248000000       21.8835000000        3.6381000000
  O         2.5495600000       -0.0000900000        9.7465500000
  O         6.1082400000       20.8743000000        2.6290100000
  O         3.5571100000       12.2209000000        8.7312300000
  O        -0.0001100000        9.6669600000        2.6288900000
  O         3.5588100000        6.1082600000        9.7465100000
  O        12.2165000000        8.6581500000        3.6395600000
  O         2.5496000000       20.8743000000        6.1877600000
  O         3.5587300000       20.8743000000        0.0795000000
  O         0.0000000000        2.5494700000        9.7464900000
  O        21.8835000000       18.3247000000        3.6382100000
  O         0.0002700000       15.7750000000        8.7372300000
  O         8.6577800000       18.3250000000        2.6288600000
  O         9.6670300000        6.1083600000        3.6384500000
  O        18.3247000000        2.5495600000        8.7372100000
  O        21.8835000000       14.7660000000        0.0794800000
  O        21.8835000000       15.7752000000        6.1876700000
  O         2.5497900000       18.3248000000        8.7375400000
  O         0.0000400000       20.8743000000        3.6382300000
  O        15.7859000000       18.3380000000        9.7402500000
  O        14.7658000000        6.1083300000        8.7371500000
  O         6.1082500000        9.6668400000        3.6381500000
  O         2.5495400000        9.6670200000        0.0794900000
  O         3.5580800000        9.6661700000        6.1870500000
  O         6.1082800000        3.5587100000        9.7463800000
  O         8.6588500000       12.2155000000        3.6378000000
  O         6.1097200000       14.7633000000        8.6564900000
  O        21.8835000000       12.2165000000        2.6289900000
  O        18.3250000000       15.7754000000        9.7464400000
  O        20.8743000000        0.0000400000        3.6382000000
  O        20.8743000000        6.1082300000        2.6289900000
  O        12.2164000000        3.5585700000        8.7373400000
  O         9.6670100000        2.5495400000        0.0795200000
  O         9.6669800000        3.5587000000        6.1877600000
  O        12.2165000000       21.8835000000        2.6289900000
  O        14.7660000000       21.8835000000        0.0794800000
  O        15.7751000000       21.8839000000        6.1874100000
  O         9.6669800000        0.0000000000        2.6290400000
  O        12.4673000000       14.7574000000        9.4783400000
  O         8.6577300000       15.7753000000        0.0794600000
  O         8.6485900000       14.7681000000        6.1903700000
  O        14.7633000000       12.2169000000        9.7455900000
  O        14.7687000000        8.6554600000        6.1846400000
  O        15.7752000000        8.6577200000        0.0795100000
  O        19.0792000000        4.2464600000        1.9412700000
  O        20.1866000000        0.7544100000        8.0495700000
  O        19.0792000000        1.8617400000        4.3260100000
  O        22.5713000000        0.7544000000       10.4343000000
  O        16.4630000000        6.8625700000        1.9410600000
  O        17.5707000000       22.5718000000        8.0493900000
  O        16.4630000000       23.6787000000        4.3259100000
  O         0.7544600000       22.5714000000       10.4341000000
  O         1.8616600000        1.8617800000       11.5416000000
  O         7.9700300000       20.1866000000        0.8338400000
  O         4.2348800000       14.0742000000        6.8724300000
  O        22.5712000000       10.3547000000        0.8338600000
  O         4.2463700000        4.2464100000       11.5416000000
  O        10.3557000000        7.9706500000        5.4339100000
  O         1.8616000000       19.0792000000        4.3259000000
  O         0.7544800000       20.1867000000        8.0494400000
  O         4.2464300000       19.0792000000        1.9412700000
  O        23.6786000000       16.4630000000        4.3260400000
  O        22.5712000000       17.5704000000        8.0493900000
  O         6.8627000000       16.4630000000        1.9411700000
  O        16.4630000000        1.8617500000        6.9421800000
  O        23.6786000000       14.0783000000        1.9412800000
  O        20.1867000000       17.5703000000       10.4342000000
  O         1.8616700000       11.4622000000        1.9411000000
  O        17.5745000000       20.1888000000       10.4350000000
  O        14.0783000000        4.2464300000        6.9421800000
  O         7.9701700000       10.3548000000        5.4331400000
  O         5.3539500000        7.9699200000       10.4341000000
  O         4.2464600000       11.4617000000        4.3257100000
  O         5.3519100000       10.3515000000        8.0469800000
  O         7.9700200000        5.3534300000       10.4341000000
  O         6.8639900000       14.0743000000        4.3222000000
  O         7.9725200000       12.9782000000        8.0672000000
  O        16.4684000000       16.4648000000       11.5464000000
  O        20.1866000000       22.5713000000        5.4332700000
  O        20.1865000000        7.9700200000        0.8338800000
  O        11.4621000000        1.8617700000        1.9412200000
  O        10.3547000000        5.3538600000        8.0495100000
  O        11.4621000000        4.2465100000        4.3259000000
  O        14.0783000000       23.6786000000        1.9412400000
  O        12.9726000000        7.9737700000        8.0493600000
  O        14.0782000000        6.8618000000        4.3254700000
  O         1.8604600000       16.4635000000        6.9414900000
  O        10.3548000000       22.5713000000        0.8339100000
  O        14.0829000000       14.0856000000       11.5316000000
  O        12.9732000000       10.3543000000       10.4291000000
  O        22.5712000000       20.1865000000        5.4333500000
  O        18.4040000000        2.5495800000        0.0002000000
  O        21.8834000000        0.0792700000        6.1084800000
  O        21.8834000000        6.0289700000        0.1588000000
  O        18.4041000000        3.5586400000        6.2670600000
  O        18.4041000000        6.1874500000        3.6380800000
  O        18.2455000000        0.0793100000        9.7465100000
  O        18.4041000000       24.3537000000        2.6290700000
  O         0.0792100000        0.0793700000        8.7373500000
  O         3.5586700000       24.3537000000       12.2165000000
  O         6.0289600000       21.8834000000        0.1588000000
  O         2.5462800000       12.1334000000        6.2648500000
  O         0.0792600000        8.6578200000        0.1587400000
  O         2.5492900000        6.1875300000       12.2164000000
  O        12.3002000000        9.6679500000        6.1136100000
  O         3.5584800000       18.4048000000        6.2669400000
  O         0.0791600000       21.8834000000        6.1083800000
  O         2.5495800000       18.4040000000        0.0001700000
  O        24.3536000000       18.4040000000        2.6290800000
  O         0.0793000000       18.2453000000        9.7464300000
  O         6.1878200000       18.4042000000        3.6381500000
  O         8.6580100000        6.0292000000        6.1083400000
  O        24.3537000000       15.7752000000        0.0002000000
  O        20.8744000000       18.2455000000        6.1084800000
  O        18.4046000000       14.7655000000       12.2167000000
  O        24.3535000000       14.7659000000        6.2670600000
  O        20.8743000000       12.2958000000        0.1587900000
  O        24.3537000000       12.1372000000        3.6381200000
  O        18.2488000000       18.2462000000        8.7363700000
  O         3.5586700000       12.1372000000        0.0001900000
  O        15.7754000000        6.1868300000        6.2667900000
  O         6.0291100000        8.6572400000        6.1076800000
  O         6.0290100000        6.0288500000        8.7372800000
  O         6.1877200000       12.1364000000        2.6282300000
  O         6.0189600000       12.2849000000        9.7338900000
  O        12.1372000000        2.5495600000        6.2670600000
  O        12.1372000000        3.5586500000        0.0002100000
  O         6.1875200000        2.5494600000       12.2167000000
  O         8.6578400000        0.0792900000        0.1587900000
  O        12.1372000000       24.3537000000        3.6381600000
  O        12.2960000000        6.0296200000        9.7458200000
  O        12.1372000000        6.1877800000        2.6290400000
  O        15.7752000000       24.3537000000        0.0002000000
  O        14.7661000000        6.1875900000        0.0002300000
  O        18.2459000000       20.8746000000        6.1080700000
  O        12.2958000000       20.8743000000        0.1587700000
  O        14.7661000000       24.3538000000        6.2670400000
  O        14.7655000000       18.3959000000       12.2100000000
  O         9.6641400000       12.2979000000        6.1107100000
  O         9.6669400000       18.2455000000        0.1586800000
  O         6.1876300000       14.7661000000        0.0002900000
  O         6.1203900000       15.7793000000        6.1846200000
  O        12.2865000000       12.2203000000        8.6586600000
  O        15.7744000000       12.1367000000       12.2177000000
  O        18.2455000000        9.6669100000        0.1587500000
  O        20.1125000000        1.7804500000        1.8599100000
  O        22.6525000000        1.7877600000        7.9681200000
  O        20.1125000000        4.3278100000        4.4072700000
  O        20.1051000000        1.7877600000       10.5155000000
  O        16.5448000000        7.8956300000        4.4067600000
  O        16.5368000000       22.6527000000       10.5156000000
  O        16.5443000000       22.6453000000        1.8599000000
  O         1.7877900000       22.6525000000        7.9682200000
  O         4.3279500000        1.7804700000       10.5083000000
  O         7.8886900000       22.6526000000        1.8672800000
  O         1.7832100000       13.9975000000        7.9744200000
  O        22.6526000000        7.8886800000        1.8672400000
  O         1.7804800000        4.3277900000       10.5082000000
  O        10.4367000000       10.4361000000        4.4015900000
  O         1.7878800000       20.1050000000       10.5156000000
  O         4.3279900000       20.1126000000        4.4071800000
  O         1.7804700000       20.1125000000        1.8599000000
  O        22.6452000000       16.5443000000        1.8599000000
  O        22.6527000000       16.5370000000       10.5156000000
  O         7.8987900000       16.5448000000        4.4063100000
  O         7.8889700000        7.8886700000        4.4000500000
  O        16.5442000000        4.3278200000        7.9756200000
  O        20.1055000000       16.5366000000        7.9681200000
  O        22.6452000000       13.9969000000        4.4072400000
  O         1.7800100000       10.4279000000        4.4065200000
  O        16.5382000000       20.1074000000        7.9663900000
  O         4.3187400000       10.4358000000       10.5149000000
  O         4.3200600000        7.8879200000        7.9679900000
  O         4.3277600000       10.4286000000        1.8598900000
  O         7.8887600000        4.3204500000        7.9680300000
  O         7.8965600000       13.9966000000        1.8591000000
  O        20.1052000000       10.4361000000        1.8672500000
  O        16.5461000000       13.9961000000       10.5078000000
  O        22.6526000000       22.6526000000        4.3999800000
  O        13.9969000000        1.7804300000        7.9755300000
  O        10.4287000000        4.3278700000        1.8600200000
  O        10.4287000000        1.7804400000        4.4073500000
  O        10.4362000000        4.3202100000       10.5151000000
  O        13.9968000000       22.6453000000        4.4072300000
  O        14.0044000000        7.8885500000       10.5160000000
  O        13.9968000000        7.8960800000        1.8600500000
  O         4.3257000000       16.5415000000        7.9715500000
  O        20.1053000000       20.1052000000        4.3998800000
  O        14.0860000000       16.5452000000       10.3579000000
  O        10.4360000000       20.1052000000        1.8671300000
  O        10.4389000000       13.9977000000        7.9741400000
  O        14.0774000000       10.4253000000        7.9671200000
  O        21.8835000000        2.5494700000       12.2960000000
  O        23.6786000000        1.8617900000       14.1577000000
  O        22.6452000000        4.3277800000       14.0765000000
  O        21.8835000000        3.5587400000       18.4043000000
  O         0.0000200000       21.8834000000       14.8454000000
  O         2.5494600000        6.1082500000       20.9539000000
  O         0.0000000000        8.6578300000       15.8548000000
  O        15.7753000000        6.1082200000       21.9630000000
  O        14.7661000000       18.3247000000       20.9537000000
  O         6.1074200000       21.8841000000       15.8541000000
  O         2.5495800000       21.8833000000       12.2960000000
  O         3.5584800000       21.8835000000       18.4041000000
  O         6.1080500000       15.7752000000       21.9631000000
  O         8.6579200000       -0.0002700000       15.8546000000
  O         6.1082400000        2.5494700000       20.9538000000
  O        21.8835000000       -0.0000600000       14.8455000000
  O        18.3248000000        3.5587100000       21.9630000000
  O        20.8742000000       12.2166000000       15.8547000000
  O         0.0000000000       14.7660000000       21.9629000000
  O        20.8743000000       18.3248000000       14.8456000000
  O        12.2168000000       15.7749000000       20.9536000000
  O        20.8745000000       15.7752000000       12.2962000000
  O        20.8742000000       14.7661000000       18.4042000000
  O        18.3246000000       20.8741000000       14.8454000000
  O        15.7749000000       12.2164000000       20.9526000000
  O        18.3246000000        9.6673400000       15.8548000000
  O         2.5495100000       12.2165000000       21.9629000000
  O         6.0975500000        8.6540100000       14.8534000000
  O         3.5586700000       -0.0000100000       20.9537000000
  O         3.5586500000       18.3246000000       21.9630000000
  O        12.2112000000       20.8727000000       15.8607000000
  O         2.5491900000        8.6579000000       18.4045000000
  O         3.5592400000        8.6576400000       12.2963000000
  O        21.8835000000        6.1082600000       15.8548000000
  O        -0.0000400000        3.5587500000       20.9538000000
  O         8.6604200000        6.1046300000       14.8505000000
  O         9.6705400000       18.4097000000       15.8609000000
  O        18.3246000000       14.7659000000       20.9536000000
  O         8.6577500000        3.5584600000       12.2958000000
  O         8.6577200000        2.5493500000       18.4043000000
  O        14.7661000000        0.0001300000       21.9631000000
  O        12.2156000000        9.6617500000       14.8457000000
  O        14.7665000000       20.8744000000       18.4045000000
  O        15.7752000000       20.8726000000       12.2955000000
  O        12.2165000000        2.5495400000       21.9630000000
  O         9.6623400000       15.7710000000       18.4062000000
  O        14.7655000000        9.6672600000       12.2962000000
  O        15.7760000000        9.6652800000       18.4058000000
  O         9.5863300000       12.1291000000       14.9345000000
  O        22.5712000000        5.3538200000       20.2660000000
  O        23.6786000000        4.2464900000       16.5424000000
  O        20.1865000000        5.3538100000       22.6507000000
  O         1.8617200000       23.6786000000       14.1579000000
  O         0.7543400000        7.9699700000       20.2661000000
  O         1.8612500000        6.8623800000       16.5426000000
  O        17.5704000000        7.9699900000       22.6508000000
  O        14.0782000000       16.4628000000       19.1586000000
  O         7.9695400000       22.5733000000       17.6511000000
  O         5.3538400000       20.1866000000       22.6508000000
  O         4.2462900000       23.6787000000       16.5427000000
  O         5.3537200000       22.5715000000       20.2663000000
  O         7.9701100000       17.5704000000       22.6509000000
  O         6.8626000000        1.8615100000       16.5427000000
  O         7.9700200000        0.7543200000       20.2660000000
  O        22.5712000000       22.5713000000       13.0504000000
  O        16.4630000000        4.2464800000       23.7581000000
  O        20.1865000000       10.3547000000       17.6499000000
  O         1.8617700000       14.0783000000       23.7581000000
  O        20.1865000000       20.1866000000       13.0504000000
  O        19.0794000000       16.4629000000       14.1577000000
  O        20.1865000000       12.9709000000       20.2661000000
  O        19.0791000000       14.0782000000       16.5425000000