 DBCSR| CPU Multiplication driver                                           XSMM
 DBCSR| Multrec recursion limit                                              512
 DBCSR| Multiplication stack size                                           1000
 DBCSR| Maximum elements for images                                    UNLIMITED
 DBCSR| Multiplicative factor virtual images                                   1
 DBCSR| Use multiplication densification                                       T
 DBCSR| Multiplication size stacks                                             3
 DBCSR| Number of 3D layers                                               SINGLE
 DBCSR| Use MPI memory allocation                                              T
 DBCSR| Use RMA algorithm                                                      F
 DBCSR| Use Communication thread                                               T
 DBCSR| Communication thread load                                             87


  **** **** ******  **  PROGRAM STARTED AT               2022-07-05 19:06:16.830
 ***** ** ***  *** **   PROGRAM STARTED ON         node0197.palmetto.clemson.edu
 **    ****   ******    PROGRAM STARTED BY                               xiutinc
 ***** **    ** ** **   PROGRAM PROCESS ID                                838282
  **** **  *******  **  PROGRAM STARTED IN  /scratch1/xiutinc/CP2K-5305502.pbs02

 CP2K| version string:                                          CP2K version 7.1
 CP2K| source code revision number:                                  git:e635599
 CP2K| cp2kflags: libint fftw3 libxc parallel mpi3 scalapack xsmm               
 CP2K| is freely available from                            https://www.cp2k.org/
 CP2K| Program compiled at                          Wed Aug 12 10:01:37 EDT 2020
 CP2K| Program compiled on                           util02.palmetto.clemson.edu
 CP2K| Program compiled for                          linux-centos8-ivybridge-gcc
 CP2K| Data directory path    /software/spackages/linux-centos8-ivybridge/gcc-8.
 CP2K| Input file name                                             intE06_aq.inp

 GLOBAL| Force Environment number                                              1
 GLOBAL| Basis set file name                                          BASIS_file
 GLOBAL| Potential file name                                     POTENTIALS_file
 GLOBAL| MM Potential file name                                     MM_POTENTIAL
 GLOBAL| Coordinate file name                                    ./intE06_aq.xyz
 GLOBAL| Method name                                                        CP2K
 GLOBAL| Project name                                                  intE06_aq
 GLOBAL| Preferred FFT library                                             FFTW3
 GLOBAL| Preferred diagonalization lib.                                       SL
 GLOBAL| Run type                                                        GEO_OPT
 GLOBAL| All-to-all communication in single precision                          F
 GLOBAL| FFTs using library dependent lengths                                  F
 GLOBAL| Global print level                                                  LOW
 GLOBAL| MPI I/O enabled                                                       T
 GLOBAL| Total number of message passing processes                            24
 GLOBAL| Number of threads for this process                                    1
 GLOBAL| This output is from process                                           0
 GLOBAL| CPU model name                Intel(R) Xeon(R) CPU E5-2680 v3 @ 2.50GHz
 GLOBAL| CPUID                                                              1002
 GLOBAL| Compiled for CPUID                                                 1001

 MEMORY| system memory details [Kb]
 MEMORY|                        rank 0           min           max       average
 MEMORY| MemTotal            131661896     131661896     131661896     131661896
 MEMORY| MemFree             120946696     120888536     120946696     120917872
 MEMORY| Buffers                  6392          6392          6392          6392
 MEMORY| Cached                3612972       3612972       3612972       3612972
 MEMORY| Slab                  3044968       3044968       3044968       3044968
 MEMORY| SReclaimable          2061592       2061592       2061592       2061592
 MEMORY| MemLikelyFree       126627652     126569492     126627652     126598828


 *******************************************************************************
 *******************************************************************************
 **                                                                           **
 **     #####                         ##              ##                      **
 **    ##   ##            ##          ##              ##                      **
 **   ##     ##                       ##            ######                    **
 **   ##     ##  ##   ##  ##   #####  ##  ##   ####   ##    #####    #####    **
 **   ##     ##  ##   ##  ##  ##      ## ##   ##      ##   ##   ##  ##   ##   **
 **   ##  ## ##  ##   ##  ##  ##      ####     ###    ##   ######   ######    **
 **    ##  ###   ##   ##  ##  ##      ## ##      ##   ##   ##       ##        **
 **     #######   #####   ##   #####  ##  ##  ####    ##    #####   ##        **
 **           ##                                                    ##        **
 **                                                                           **
 **                                                ... make the atoms dance   **
 **                                                                           **
 **            Copyright (C) by CP2K developers group (2000 - 2019)           **
 **                                                                           **
 *******************************************************************************


 TOTAL NUMBERS AND MAXIMUM NUMBERS

  Total number of            - Atomic kinds:                                   5
                             - Atoms:                                        657
                             - Shell sets:                                   657
                             - Shells:                                      3176
                             - Primitive Cartesian functions:               3096
                             - Cartesian basis functions:                   8711
                             - Spherical basis functions:                   8106

  Maximum angular momentum of- Orbital basis functions:                        3
                             - Local part of the GTH pseudopotential:          2
                             - Non-local part of the GTH pseudopotential:      3


 SCF PARAMETERS         Density guess:                                   RESTART
                        --------------------------------------------------------
                        max_scf:                                             500
                        max_scf_history:                                       0
                        max_diis:                                              4
                        --------------------------------------------------------
                        eps_scf:                                        1.00E-06
                        eps_scf_history:                                0.00E+00
                        eps_diis:                                       1.00E-01
                        eps_eigval:                                     1.00E-05
                        --------------------------------------------------------
                        level_shift [a.u.]:                                 0.00
                        --------------------------------------------------------
                        Outer loop SCF in use 
                        No variables optimised in outer loop
                        eps_scf                                         1.00E-06
                        max_scf                                               50
                        No outer loop optimization
                        step_size                                       5.00E-01

 BFGS| Use rational function optimization for step estimation:                NO
 BFGS| Use model Hessian for initial guess:                                  YES
 BFGS| Restart Hessian:                                                       NO
 BFGS| Trust radius:                                                       0.472

 *******************************************************************************
 ***                     STARTING GEOMETRY OPTIMIZATION                      ***
 ***                                   BFGS                                  ***
 *******************************************************************************

 Number of electrons:                                                       3286
 Number of occupied orbitals:                                               1643
 Number of molecular orbitals:                                              1643

 Number of orbital functions:                                               8106
 Number of independent orbital functions:                                   8106

 Extrapolation method: initial_guess

 *** WARNING in qs_initial_guess.F:280 :: User requested to restart the   ***
 *** wavefunction from the file named: intE06_aq-RESTART.wfn. This file   ***
 *** does not exist. Please check the existence of the file or change     ***
 *** properly the value of the keyword WFN_RESTART_FILE_NAME. Calculation ***
 *** continues using ATOMIC GUESS.                                        ***



 SCF WAVEFUNCTION OPTIMIZATION

  ----------------------------------- OT ---------------------------------------
  Minimizer      : CG                  : conjugate gradient
  Preconditioner : FULL_ALL            : diagonalization, state selective
  Precond_solver : DEFAULT
  Line search    : 2PNT                : 2 energies, one gradient
  stepsize       :    0.15000000                  energy_gap     :    0.00100000
  eps_taylor     :   0.10000E-15                  max_taylor     :             4
  ----------------------------------- OT ---------------------------------------

  Step     Update method      Time    Convergence         Total energy    Change
  ------------------------------------------------------------------------------
     1 OT CG       0.15E+00   38.2     0.01628770     -7202.6653406642 -7.20E+03
     2 OT LS       0.62E-01    4.2                    -7091.1924373509
     3 OT CG       0.62E-01   10.9     0.07724857     -7110.1907665153  9.25E+01
     4 OT LS       0.28E-01    4.2                    -6584.4626369402
     5 OT CG       0.28E-01   10.9     0.12939089     -6728.6777564476  3.82E+02
     6 OT LS       0.15E-01    4.2                    -6904.5236117332
     7 OT CG       0.15E-01   10.8     0.06162542     -7053.4029052204 -3.25E+02
     8 OT LS       0.85E-02    4.2                    -7152.6217680745
     9 OT CG       0.85E-02   10.9     0.01710287     -7189.0418879661 -1.36E+02
    10 OT LS       0.21E-01    4.2                    -7211.1602305840
    11 OT CG       0.21E-01   10.9     0.01726729     -7219.0638051366 -3.00E+01
    12 OT LS       0.27E-01    4.3                    -7260.2558579483
    13 OT CG       0.27E-01   10.9     0.01516752     -7264.2673675565 -4.52E+01
    14 OT LS       0.16E-01    4.2                    -7275.7779636829
    15 OT CG       0.16E-01   10.9     0.01104986     -7284.9900614211 -2.07E+01
    16 OT LS       0.52E-01    4.2                    -7305.0913167640
    17 OT CG       0.52E-01   10.8     0.02019893     -7306.4040291524 -2.14E+01
    18 OT LS       0.52E-03    4.2                    -6498.5993181466
    19 OT CG       0.52E-03   10.8     0.02068083     -7306.2699326279  1.34E-01
    20 OT LS       0.21E-02    4.2                    -7309.1416396365
    21 OT CG       0.21E-02   10.8     0.01532869     -7316.5846249088 -1.03E+01
    22 OT LS       0.84E-02    4.2                    -7322.3638055773
    23 OT CG       0.84E-02   10.9     0.00567897     -7331.3513164890 -1.48E+01
    24 OT LS       0.33E-01    4.2                    -7334.6956160630
    25 OT CG       0.33E-01   11.1     0.00411704     -7341.8038376643 -1.05E+01
    26 OT LS       0.10E+00    5.4                    -7348.4824105520
    27 OT CG       0.10E+00   10.9     0.00579111     -7356.4336361673 -1.46E+01
    28 OT LS       0.16E-01    4.4                    -7222.0396749854
    29 OT CG       0.16E-01   10.9     0.00353410     -7361.8655620508 -5.43E+00
    30 OT LS       0.62E-01    4.2                    -7364.6404765153
    31 OT CG       0.62E-01   10.9     0.00363596     -7369.2277683628 -7.36E+00
    32 OT LS       0.46E-01    4.2                    -7373.2561375383
    33 OT CG       0.46E-01   10.9     0.00345060     -7373.4354151495 -4.21E+00
    34 OT LS       0.36E-01    4.2                    -7376.1483948115
    35 OT CG       0.36E-01   10.9     0.00297135     -7376.5487135405 -3.11E+00
    36 OT LS       0.69E-01    4.2                    -7379.5468717069
    37 OT CG       0.69E-01   10.9     0.00330561     -7380.3619002298 -3.81E+00
    38 OT LS       0.39E-01    4.2                    -7381.5669471322
    39 OT CG       0.39E-01   12.0     0.00278473     -7382.7399928407 -2.38E+00
    40 OT LS       0.56E-01    9.1                    -7385.2777945829
    41 OT CG       0.56E-01   11.0     0.00324709     -7385.3313596378 -2.59E+00
    42 OT LS       0.40E-01    4.2                    -7387.2572753701
    43 OT CG       0.40E-01   10.9     0.00291654     -7387.6045685673 -2.27E+00
    44 OT LS       0.34E-01    4.2                    -7389.4822219098
    45 OT CG       0.34E-01   10.9     0.00239128     -7389.4934069959 -1.89E+00
    46 OT LS       0.74E-01    4.2                    -7391.5857184763
    47 OT CG       0.74E-01   10.8     0.00290958     -7392.1363299761 -2.64E+00
    48 OT LS       0.35E-01    4.2                    -7391.8887497562
    49 OT CG       0.35E-01   10.9     0.00277909     -7393.6292759587 -1.49E+00
    50 OT LS       0.31E-01    4.2                    -7395.2037415827
    51 OT CG       0.31E-01   10.9     0.00186526     -7395.2081523955 -1.58E+00
    52 OT LS       0.75E-01    4.2                    -7396.3983936641
    53 OT CG       0.75E-01   10.9     0.00181354     -7396.8314418193 -1.62E+00
    54 OT LS       0.56E-01    4.2                    -7397.6254153489
    55 OT CG       0.56E-01   10.9     0.00196696     -7397.7226501039 -8.91E-01
    56 OT LS       0.54E-01    4.2                    -7399.1114894333
    57 OT CG       0.54E-01   10.9     0.00184975     -7399.1069918954 -1.38E+00
    58 OT LS       0.53E-01    4.2                    -7400.3791337980
    59 OT CG       0.53E-01   10.9     0.00152584     -7400.3827889055 -1.28E+00
    60 OT LS       0.83E-01    4.2                    -7401.4186985856
    61 OT CG       0.83E-01   10.8     0.00204235     -7401.5734942967 -1.19E+00
    62 OT LS       0.61E-01    4.2                    -7403.0616702325
    63 OT CG       0.61E-01   10.9     0.00202874     -7403.1754520444 -1.60E+00
    64 OT LS       0.97E-01    4.2                    -7405.5442902215
    65 OT CG       0.97E-01   10.9     0.00218831     -7405.6802531084 -2.50E+00
    66 OT LS       0.49E-01    4.2                    -7405.7456038149
    67 OT CG       0.49E-01   10.8     0.00220160     -7406.9121971620 -1.23E+00
    68 OT LS       0.52E-01    4.2                    -7408.6056167458
    69 OT CG       0.52E-01   10.8     0.00156223     -7408.6227949667 -1.71E+00
    70 OT LS       0.56E-01    4.2                    -7409.5945804948
    71 OT CG       0.56E-01   10.9     0.00110499     -7409.5940989751 -9.71E-01
    72 OT LS       0.12E+00    4.2                    -7410.2550701894
    73 OT CG       0.12E+00   10.9     0.00131646     -7410.5357891295 -9.42E-01
    74 OT LS       0.85E-01    4.2                    -7411.3459370769
    75 OT CG       0.85E-01   10.9     0.00139781     -7411.5128025934 -9.77E-01
    76 OT LS       0.72E-01    4.2                    -7412.4248459823
    77 OT CG       0.72E-01   10.8     0.00127688     -7412.4694223249 -9.57E-01
    78 OT LS       0.11E+00    4.2                    -7413.4796853879
    79 OT CG       0.11E+00   10.8     0.00167466     -7413.5727174656 -1.10E+00
    80 OT LS       0.61E-01    4.2                    -7414.0621524448
    81 OT CG       0.61E-01   10.8     0.00140407     -7414.5980967314 -1.03E+00
    82 OT LS       0.10E+00    4.2                    -7415.7102054036
    83 OT CG       0.10E+00   10.8     0.00135114     -7415.9104773183 -1.31E+00
    84 OT LS       0.74E-01    4.2                    -7416.6904141750
    85 OT CG       0.74E-01   10.8     0.00131553     -7416.8188020896 -9.08E-01
    86 OT LS       0.81E-01    4.2                    -7417.7420372285
    87 OT CG       0.81E-01   10.8     0.00123439     -7417.7505679790 -9.32E-01
    88 OT LS       0.76E-01    4.2                    -7418.5319760675
    89 OT CG       0.76E-01   10.8     0.00111386     -7418.5342176355 -7.84E-01
    90 OT LS       0.84E-01    4.2                    -7419.2221901782
    91 OT CG       0.84E-01   11.0     0.00113931     -7419.2249310546 -6.91E-01
    92 OT LS       0.73E-01    4.2                    -7419.8256811461
    93 OT CG       0.73E-01   10.8     0.00103066     -7419.8389197748 -6.14E-01
    94 OT LS       0.83E-01    4.2                    -7420.4205369413
    95 OT CG       0.83E-01   10.8     0.00098300     -7420.4330412682 -5.94E-01
    96 OT LS       0.84E-01    4.2                    -7420.9848991242
    97 OT CG       0.84E-01   10.8     0.00096424     -7420.9848685925 -5.52E-01
    98 OT LS       0.88E-01    4.2                    -7421.5248075963
    99 OT CG       0.88E-01   10.8     0.00105014     -7421.5252111874 -5.40E-01
   100 OT LS       0.80E-01    4.2                    -7422.0977923216
   101 OT CG       0.80E-01   10.8     0.00097829     -7422.1031509674 -5.78E-01
   102 OT LS       0.83E-01    4.2                    -7422.6338134855
   103 OT CG       0.83E-01   10.9     0.00094967     -7422.6347867282 -5.32E-01
   104 OT LS       0.82E-01    5.7                    -7423.1325202984
   105 OT CG       0.82E-01   10.8     0.00089829     -7423.1326897339 -4.98E-01
   106 OT LS       0.87E-01    4.2                    -7423.5961465829
   107 OT CG       0.87E-01   10.9     0.00090373     -7423.5975191784 -4.65E-01
   108 OT LS       0.79E-01    4.2                    -7424.0194441072
   109 OT CG       0.79E-01   10.8     0.00082196     -7424.0236440830 -4.26E-01
   110 OT LS       0.83E-01    4.2                    -7424.3970003790
   111 OT CG       0.83E-01   10.8     0.00078986     -7424.3978270020 -3.74E-01
   112 OT LS       0.86E-01    4.2                    -7424.7566178647
   113 OT CG       0.86E-01   10.8     0.00077757     -7424.7570497888 -3.59E-01
   114 OT LS       0.86E-01    4.2                    -7425.1003261532
   115 OT CG       0.86E-01   10.8     0.00079367     -7425.1003354485 -3.43E-01
   116 OT LS       0.80E-01    4.2                    -7425.4325588673
   117 OT CG       0.80E-01   12.3     0.00073897     -7425.4342594889 -3.34E-01
   118 OT LS       0.87E-01    8.7                    -7425.7496345403
   119 OT CG       0.87E-01   12.5     0.00072623     -7425.7516843197 -3.17E-01
   120 OT LS       0.86E-01    4.2                    -7426.0526309444
   121 OT CG       0.86E-01   10.8     0.00072071     -7426.0527240634 -3.01E-01
   122 OT LS       0.83E-01    4.3                    -7426.3359210489
   123 OT CG       0.83E-01   10.8     0.00070706     -7426.3363609850 -2.84E-01
   124 OT LS       0.82E-01    4.2                    -7426.6077567808
   125 OT CG       0.82E-01   10.8     0.00065605     -7426.6077570417 -2.71E-01
   126 OT LS       0.88E-01    4.2                    -7426.8599939973
   127 OT CG       0.88E-01   10.8     0.00064649     -7426.8613295136 -2.54E-01
   128 OT LS       0.85E-01    4.2                    -7427.0974060346
   129 OT CG       0.85E-01   10.8     0.00063905     -7427.0978029234 -2.36E-01
   130 OT LS       0.84E-01    4.2                    -7427.3237824145
   131 OT CG       0.84E-01   10.8     0.00062612     -7427.3238517083 -2.26E-01
   132 OT LS       0.83E-01    4.2                    -7427.5406635625
   133 OT CG       0.83E-01   10.8     0.00059577     -7427.5406586592 -2.17E-01
   134 OT LS       0.87E-01    4.2                    -7427.7463318082
   135 OT CG       0.87E-01   10.8     0.00059072     -7427.7467146760 -2.06E-01
   136 OT LS       0.86E-01    4.2                    -7427.9459705103
   137 OT CG       0.86E-01   10.8     0.00058177     -7427.9460282755 -1.99E-01
   138 OT LS       0.85E-01    4.4                    -7428.1372482218
   139 OT CG       0.85E-01   10.9     0.00057077     -7428.1372583406 -1.91E-01
   140 OT LS       0.84E-01    4.2                    -7428.3198323412
   141 OT CG       0.84E-01   10.8     0.00054614     -7428.3198411392 -1.83E-01
   142 OT LS       0.87E-01    4.2                    -7428.4926457018
   143 OT CG       0.87E-01   10.8     0.00053435     -7428.4928071395 -1.73E-01
   144 OT LS       0.87E-01    4.2                    -7428.6594052849
   145 OT CG       0.87E-01   10.8     0.00052504     -7428.6594081115 -1.67E-01
   146 OT LS       0.87E-01    4.2                    -7428.8184059863
   147 OT CG       0.87E-01   10.8     0.00051799     -7428.8184211500 -1.59E-01
   148 OT LS       0.85E-01    4.2                    -7428.9707377832
   149 OT CG       0.85E-01   10.8     0.00050226     -7428.9707722700 -1.52E-01
   150 OT LS       0.87E-01    4.2                    -7429.1177165615
   151 OT CG       0.87E-01   10.8     0.00049377     -7429.1178024597 -1.47E-01
   152 OT LS       0.87E-01    4.2                    -7429.2594023240
   153 OT CG       0.87E-01   10.8     0.00048860     -7429.2594059410 -1.42E-01
   154 OT LS       0.86E-01    4.4                    -7429.3956948104
   155 OT CG       0.86E-01   10.8     0.00048141     -7429.3957329496 -1.36E-01
   156 OT LS       0.86E-01    4.2                    -7429.5285199850
   157 OT CG       0.86E-01   10.8     0.00046776     -7429.5285217659 -1.33E-01
   158 OT LS       0.87E-01    4.2                    -7429.6552829580
   159 OT CG       0.87E-01   10.8     0.00045835     -7429.6552966377 -1.27E-01
   160 OT LS       0.87E-01    4.2                    -7429.7769677260
   161 OT CG       0.87E-01   10.8     0.00045083     -7429.7769680303 -1.22E-01
   162 OT LS       0.87E-01    4.2                    -7429.8943563516
   163 OT CG       0.87E-01   10.8     0.00044303     -7429.8943572801 -1.17E-01
   164 OT LS       0.88E-01    4.2                    -7430.0087186818
   165 OT CG       0.88E-01   10.8     0.00043377     -7430.0087279011 -1.14E-01
   166 OT LS       0.87E-01    4.2                    -7430.1181180158
   167 OT CG       0.87E-01   10.8     0.00042637     -7430.1181187978 -1.09E-01
   168 OT LS       0.86E-01    4.2                    -7430.2225992314
   169 OT CG       0.86E-01   10.8     0.00041902     -7430.2226144218 -1.04E-01
   170 OT LS       0.86E-01    4.4                    -7430.3234867213
   171 OT CG       0.86E-01   10.8     0.00041225     -7430.3234867602 -1.01E-01
   172 OT LS       0.87E-01    4.2                    -7430.4215126024
   173 OT CG       0.87E-01   10.8     0.00040372     -7430.4215141599 -9.80E-02
   174 OT LS       0.87E-01    4.2                    -7430.5162026196
   175 OT CG       0.87E-01   10.8     0.00039548     -7430.5162074875 -9.47E-02
   176 OT LS       0.88E-01    4.2                    -7430.6077802813
   177 OT CG       0.88E-01   10.8     0.00038719     -7430.6077852771 -9.16E-02
   178 OT LS       0.88E-01    4.2                    -7430.6956351840
   179 OT CG       0.88E-01   10.8     0.00038157     -7430.6956352219 -8.78E-02
   180 OT LS       0.88E-01    4.2                    -7430.7812410123
   181 OT CG       0.88E-01   10.8     0.00037629     -7430.7812420379 -8.56E-02
   182 OT LS       0.87E-01    6.6                    -7430.8636850891
   183 OT CG       0.87E-01   10.8     0.00037028     -7430.8636930527 -8.25E-02
   184 OT LS       0.88E-01    4.2                    -7430.9436133929
   185 OT CG       0.88E-01   10.8     0.00036312     -7430.9436134492 -7.99E-02
   186 OT LS       0.88E-01    4.2                    -7431.0210907170
   187 OT CG       0.88E-01   10.8     0.00035667     -7431.0210955922 -7.75E-02
   188 OT LS       0.89E-01    4.2                    -7431.0962317773
   189 OT CG       0.89E-01   10.8     0.00035119     -7431.0962338263 -7.51E-02
   190 OT LS       0.89E-01    4.2                    -7431.1689826029
   191 OT CG       0.89E-01   10.8     0.00034478     -7431.1689827336 -7.27E-02
   192 OT LS       0.89E-01    4.2                    -7431.2391590526
   193 OT CG       0.89E-01   10.8     0.00033875     -7431.2391590939 -7.02E-02
   194 OT LS       0.89E-01    4.2                    -7431.3068557899
   195 OT CG       0.89E-01   11.8     0.00033360     -7431.3068558200 -6.77E-02
   196 OT LS       0.88E-01    8.0                    -7431.3721142033
   197 OT CG       0.88E-01   12.9     0.00032957     -7431.3721165127 -6.53E-02
   198 OT LS       0.87E-01    4.2                    -7431.4352938425
   199 OT CG       0.87E-01   10.8     0.00032271     -7431.4352979380 -6.32E-02
   200 OT LS       0.88E-01    4.2                    -7431.4964231058
   201 OT CG       0.88E-01   10.9     0.00031747     -7431.4964280459 -6.11E-02
   202 OT LS       0.88E-01    4.2                    -7431.5557955208
   203 OT CG       0.88E-01   10.8     0.00031165     -7431.5557962277 -5.94E-02
   204 OT LS       0.88E-01    4.2                    -7431.6129838364
   205 OT CG       0.88E-01   10.8     0.00030658     -7431.6129838408 -5.72E-02
   206 OT LS       0.89E-01    4.2                    -7431.6686983513
   207 OT CG       0.89E-01   10.8     0.00030012     -7431.6687009417 -5.57E-02
   208 OT LS       0.90E-01    4.2                    -7431.7225161075
   209 OT CG       0.90E-01   10.8     0.00029514     -7431.7225195060 -5.38E-02
   210 OT LS       0.89E-01    4.2                    -7431.7743204907
   211 OT CG       0.89E-01   10.8     0.00029063     -7431.7743217143 -5.18E-02
   212 OT LS       0.89E-01    4.2                    -7431.8242464489
   213 OT CG       0.89E-01   10.8     0.00028602     -7431.8242482693 -4.99E-02
   214 OT LS       0.89E-01    4.2                    -7431.8724921418
   215 OT CG       0.89E-01   10.8     0.00028074     -7431.8724923559 -4.82E-02
   216 OT LS       0.89E-01    4.2                    -7431.9193711816
   217 OT CG       0.89E-01   10.9     0.00027596     -7431.9193747458 -4.69E-02
   218 OT LS       0.89E-01    4.2                    -7431.9644296466
   219 OT CG       0.89E-01   10.8     0.00027124     -7431.9644310172 -4.51E-02
   220 OT LS       0.89E-01    4.2                    -7432.0082754286
   221 OT CG       0.89E-01   10.8     0.00026705     -7432.0082777035 -4.38E-02
   222 OT LS       0.89E-01    4.2                    -7432.0507531203
   223 OT CG       0.89E-01   10.8     0.00026298     -7432.0507531283 -4.25E-02
   224 OT LS       0.90E-01    4.2                    -7432.0920661882
   225 OT CG       0.90E-01   10.8     0.00025938     -7432.0920666060 -4.13E-02
   226 OT LS       0.89E-01    4.2                    -7432.1320554307
   227 OT CG       0.89E-01   10.8     0.00025500     -7432.1320564402 -4.00E-02
   228 OT LS       0.90E-01    4.2                    -7432.1711692138
   229 OT CG       0.90E-01   10.8     0.00025099     -7432.1711746318 -3.91E-02
   230 OT LS       0.90E-01    4.2                    -7432.2088829821
   231 OT CG       0.90E-01   10.8     0.00024845     -7432.2088838899 -3.77E-02
   232 OT LS       0.89E-01    4.2                    -7432.2454556956
   233 OT CG       0.89E-01   11.0     0.00024496     -7432.2454594482 -3.66E-02
   234 OT LS       0.89E-01    4.2                    -7432.2809814849
   235 OT CG       0.89E-01   10.8     0.00024096     -7432.2809815089 -3.55E-02
   236 OT LS       0.90E-01    4.2                    -7432.3157122271
   237 OT CG       0.90E-01   10.8     0.00023704     -7432.3157158959 -3.47E-02
   238 OT LS       0.90E-01    4.2                    -7432.3495139846
   239 OT CG       0.90E-01   10.8     0.00023415     -7432.3495149909 -3.38E-02
   240 OT LS       0.90E-01    4.2                    -7432.3823175792
   241 OT CG       0.90E-01   10.8     0.00023116     -7432.3823184940 -3.28E-02
   242 OT LS       0.90E-01    4.2                    -7432.4142949659
   243 OT CG       0.90E-01   10.8     0.00022765     -7432.4142949693 -3.20E-02
   244 OT LS       0.90E-01    4.2                    -7432.4455261221
   245 OT CG       0.90E-01   10.8     0.00022482     -7432.4455276389 -3.12E-02
   246 OT LS       0.90E-01    4.2                    -7432.4759385437
   247 OT CG       0.90E-01   10.8     0.00022250     -7432.4759386434 -3.04E-02
   248 OT LS       0.90E-01    4.2                    -7432.5055997941
   249 OT CG       0.90E-01   11.1     0.00021957     -7432.5056002852 -2.97E-02
   250 OT LS       0.91E-01    4.2                    -7432.5347036779
   251 OT CG       0.91E-01   10.9     0.00021638     -7432.5347053554 -2.91E-02
   252 OT LS       0.91E-01    4.2                    -7432.5629910473
   253 OT CG       0.91E-01   10.8     0.00021416     -7432.5629910606 -2.83E-02
   254 OT LS       0.90E-01    4.2                    -7432.5904884482
   255 OT CG       0.90E-01   10.9     0.00021155     -7432.5904900814 -2.75E-02
   256 OT LS       0.90E-01    4.2                    -7432.6173481852
   257 OT CG       0.90E-01   10.9     0.00020905     -7432.6173482123 -2.69E-02
   258 OT LS       0.90E-01    4.2                    -7432.6436099202
   259 OT CG       0.90E-01   10.9     0.00020609     -7432.6436099694 -2.63E-02
   260 OT LS       0.91E-01    4.3                    -7432.6692457554
   261 OT CG       0.91E-01   10.8     0.00020371     -7432.6692462518 -2.56E-02
   262 OT LS       0.90E-01    4.2                    -7432.6942393397
   263 OT CG       0.90E-01   10.8     0.00020147     -7432.6942394758 -2.50E-02
   264 OT LS       0.91E-01    4.2                    -7432.7187002585
   265 OT CG       0.91E-01   10.9     0.00019890     -7432.7187002683 -2.45E-02
   266 OT LS       0.91E-01    4.2                    -7432.7426421798
   267 OT CG       0.91E-01   10.8     0.00019638     -7432.7426426477 -2.39E-02
   268 OT LS       0.91E-01    4.2                    -7432.7660125624
   269 OT CG       0.91E-01   10.8     0.00019376     -7432.7660125953 -2.34E-02
   270 OT LS       0.91E-01    4.2                    -7432.7887893023
   271 OT CG       0.91E-01   10.8     0.00019168     -7432.7887893254 -2.28E-02
   272 OT LS       0.91E-01    4.2                    -7432.8109337757
   273 OT CG       0.91E-01   11.6     0.00018914     -7432.8109346961 -2.21E-02
   274 OT LS       0.91E-01    7.5                    -7432.8325463018
   275 OT CG       0.91E-01   13.1     0.00018650     -7432.8325464253 -2.16E-02
   276 OT LS       0.91E-01    4.2                    -7432.8535769179
   277 OT CG       0.91E-01   10.8     0.00018453     -7432.8535769325 -2.10E-02
   278 OT LS       0.90E-01    4.2                    -7432.8738818367
   279 OT CG       0.90E-01   10.8     0.00018223     -7432.8738857629 -2.03E-02
   280 OT LS       0.90E-01    4.5                    -7432.8937958832
   281 OT CG       0.90E-01   10.8     0.00017980     -7432.8937964456 -1.99E-02
   282 OT LS       0.90E-01    4.2                    -7432.9132722315
   283 OT CG       0.90E-01   10.8     0.00017721     -7432.9132727054 -1.95E-02
   284 OT LS       0.91E-01    4.2                    -7432.9323619461
   285 OT CG       0.91E-01   10.8     0.00017479     -7432.9323634684 -1.91E-02
   286 OT LS       0.92E-01    4.2                    -7432.9510710958
   287 OT CG       0.92E-01   10.8     0.00017270     -7432.9510720756 -1.87E-02
   288 OT LS       0.92E-01    4.2                    -7432.9693197568
   289 OT CG       0.92E-01   10.8     0.00017119     -7432.9693197730 -1.82E-02
   290 OT LS       0.91E-01    4.2                    -7432.9870939460
   291 OT CG       0.91E-01   10.8     0.00016936     -7432.9870952547 -1.78E-02
   292 OT LS       0.91E-01    4.2                    -7433.0043810714
   293 OT CG       0.91E-01   10.8     0.00016781     -7433.0043817994 -1.73E-02
   294 OT LS       0.90E-01    4.2                    -7433.0212645147
   295 OT CG       0.90E-01   10.8     0.00016587     -7433.0212649794 -1.69E-02
   296 OT LS       0.90E-01    4.4                    -7433.0377498277
   297 OT CG       0.90E-01   10.8     0.00016395     -7433.0377498380 -1.65E-02
   298 OT LS       0.90E-01    4.2                    -7433.0538995942
   299 OT CG       0.90E-01   10.8     0.00016201     -7433.0538997223 -1.61E-02
   300 OT LS       0.91E-01    4.2                    -7433.0697590882
   301 OT CG       0.91E-01   10.8     0.00015968     -7433.0697596103 -1.59E-02
   302 OT LS       0.92E-01    4.2                    -7433.0853326932
   303 OT CG       0.92E-01   10.8     0.00015795     -7433.0853344695 -1.56E-02
   304 OT LS       0.92E-01    4.2                    -7433.1005794061
   305 OT CG       0.92E-01   10.8     0.00015627     -7433.1005794088 -1.52E-02
   306 OT LS       0.92E-01    4.2                    -7433.1155335469
   307 OT CG       0.92E-01   10.8     0.00015467     -7433.1155336111 -1.50E-02
   308 OT LS       0.92E-01    4.2                    -7433.1302059655
   309 OT CG       0.92E-01   10.8     0.00015305     -7433.1302060037 -1.47E-02
   310 OT LS       0.92E-01    4.2                    -7433.1445898247
   311 OT CG       0.92E-01   10.8     0.00015169     -7433.1445898435 -1.44E-02
   312 OT LS       0.92E-01    4.4                    -7433.1586124751
   313 OT CG       0.92E-01   10.9     0.00015062     -7433.1586132938 -1.40E-02
   314 OT LS       0.91E-01    4.2                    -7433.1723499738
   315 OT CG       0.91E-01   10.9     0.00014884     -7433.1723505688 -1.37E-02
   316 OT LS       0.92E-01    4.2                    -7433.1858531115
   317 OT CG       0.92E-01   10.8     0.00014764     -7433.1858537229 -1.35E-02
   318 OT LS       0.91E-01    4.2                    -7433.1990236398
   319 OT CG       0.91E-01   10.9     0.00014646     -7433.1990246736 -1.32E-02
   320 OT LS       0.90E-01    4.2                    -7433.2118860722
   321 OT CG       0.90E-01   10.8     0.00014504     -7433.2118868662 -1.29E-02
   322 OT LS       0.91E-01    4.2                    -7433.2245944788
   323 OT CG       0.91E-01   10.8     0.00014335     -7433.2245951754 -1.27E-02
   324 OT LS       0.91E-01    4.2                    -7433.2371126671
   325 OT CG       0.91E-01   10.8     0.00014211     -7433.2371135377 -1.25E-02
   326 OT LS       0.91E-01    4.2                    -7433.2494130413
   327 OT CG       0.91E-01   10.8     0.00014096     -7433.2494130416 -1.23E-02
   328 OT LS       0.91E-01    4.2                    -7433.2614370175
   329 OT CG       0.91E-01   11.0     0.00013950     -7433.2614375245 -1.20E-02
   330 OT LS       0.91E-01    4.2                    -7433.2732649463
   331 OT CG       0.91E-01   10.8     0.00013805     -7433.2732651588 -1.18E-02
   332 OT LS       0.92E-01    4.2                    -7433.2849025577
   333 OT CG       0.92E-01   10.8     0.00013658     -7433.2849028128 -1.16E-02
   334 OT LS       0.92E-01    4.2                    -7433.2962709035
   335 OT CG       0.92E-01   10.8     0.00013542     -7433.2962709445 -1.14E-02
   336 OT LS       0.91E-01    4.2                    -7433.3074008668
   337 OT CG       0.91E-01   10.9     0.00013424     -7433.3074010662 -1.11E-02
   338 OT LS       0.92E-01    4.3                    -7433.3183841475
   339 OT CG       0.92E-01   12.3     0.00013286     -7433.3183843323 -1.10E-02
   340 OT LS       0.92E-01    4.2                    -7433.3291644774
   341 OT CG       0.92E-01   10.8     0.00013176     -7433.3291645201 -1.08E-02
   342 OT LS       0.92E-01    4.2                    -7433.3397578673
   343 OT CG       0.92E-01   10.8     0.00013071     -7433.3397578751 -1.06E-02
   344 OT LS       0.91E-01    4.4                    -7433.3500929073
   345 OT CG       0.91E-01   10.8     0.00012950     -7433.3500936874 -1.03E-02
   346 OT LS       0.91E-01    4.2                    -7433.3602546977
   347 OT CG       0.91E-01   10.8     0.00012810     -7433.3602547183 -1.02E-02
   348 OT LS       0.91E-01    4.2                    -7433.3702526154
   349 OT CG       0.91E-01   10.8     0.00012650     -7433.3702529297 -1.00E-02
   350 OT LS       0.92E-01    4.2                    -7433.3800795487
   351 OT CG       0.92E-01   10.8     0.00012517     -7433.3800801625 -9.83E-03
   352 OT LS       0.92E-01    5.1                    -7433.3897028540
   353 OT CG       0.92E-01   15.4     0.00012403     -7433.3897028541 -9.62E-03
   354 OT LS       0.92E-01    4.2                    -7433.3991020959
   355 OT CG       0.92E-01   10.8     0.00012301     -7433.3991023586 -9.40E-03
   356 OT LS       0.92E-01    4.2                    -7433.4083352096
   357 OT CG       0.92E-01   10.8     0.00012198     -7433.4083352298 -9.23E-03
   358 OT LS       0.91E-01    4.2                    -7433.4173835741
   359 OT CG       0.91E-01   11.0     0.00012108     -7433.4173836659 -9.05E-03
   360 OT LS       0.91E-01    4.2                    -7433.4262264852
   361 OT CG       0.91E-01   10.8     0.00011981     -7433.4262270702 -8.84E-03
   362 OT LS       0.91E-01    4.2                    -7433.4349241302
   363 OT CG       0.91E-01   10.8     0.00011872     -7433.4349242907 -8.70E-03
   364 OT LS       0.91E-01    4.2                    -7433.4434882675
   365 OT CG       0.91E-01   10.8     0.00011745     -7433.4434883315 -8.56E-03
   366 OT LS       0.91E-01    4.2                    -7433.4518853750
   367 OT CG       0.91E-01   10.8     0.00011654     -7433.4518854068 -8.40E-03
   368 OT LS       0.91E-01    4.2                    -7433.4601387545
   369 OT CG       0.91E-01   10.8     0.00011541     -7433.4601387811 -8.25E-03
   370 OT LS       0.92E-01    4.2                    -7433.4682674104
   371 OT CG       0.92E-01   10.8     0.00011441     -7433.4682675587 -8.13E-03
   372 OT LS       0.92E-01    4.2                    -7433.4762608319
   373 OT CG       0.92E-01   10.9     0.00011353     -7433.4762608334 -7.99E-03
   374 OT LS       0.92E-01    4.2                    -7433.4841261637
   375 OT CG       0.92E-01   11.1     0.00011277     -7433.4841261663 -7.87E-03
   376 OT LS       0.92E-01    4.2                    -7433.4918821372
   377 OT CG       0.92E-01   10.8     0.00011158     -7433.4918821408 -7.76E-03
   378 OT LS       0.92E-01    4.2                    -7433.4995057763
   379 OT CG       0.92E-01   10.8     0.00011069     -7433.4995058949 -7.62E-03
   380 OT LS       0.92E-01    4.2                    -7433.5070013091
   381 OT CG       0.92E-01   10.8     0.00010975     -7433.5070013152 -7.50E-03
   382 OT LS       0.92E-01    4.2                    -7433.5143664761
   383 OT CG       0.92E-01   11.4     0.00010877     -7433.5143664790 -7.37E-03
   384 OT LS       0.92E-01    4.2                    -7433.5216069431
   385 OT CG       0.92E-01   10.8     0.00010780     -7433.5216069500 -7.24E-03
   386 OT LS       0.92E-01    4.2                    -7433.5287187933
   387 OT CG       0.92E-01   10.9     0.00010685     -7433.5287187935 -7.11E-03
   388 OT LS       0.92E-01    4.2                    -7433.5357089488
   389 OT CG       0.92E-01   10.8     0.00010619     -7433.5357089500 -6.99E-03
   390 OT LS       0.92E-01    4.2                    -7433.5425918159
   391 OT CG       0.92E-01   11.0     0.00010538     -7433.5425918790 -6.88E-03
   392 OT LS       0.92E-01    4.2                    -7433.5493579083
   393 OT CG       0.92E-01   10.8     0.00010472     -7433.5493579287 -6.77E-03
   394 OT LS       0.91E-01    4.2                    -7433.5560273455
   395 OT CG       0.91E-01   10.8     0.00010399     -7433.5560273692 -6.67E-03
   396 OT LS       0.92E-01    4.2                    -7433.5626208251
   397 OT CG       0.92E-01   10.8     0.00010322     -7433.5626208635 -6.59E-03
   398 OT LS       0.92E-01    4.2                    -7433.5691144175
   399 OT CG       0.92E-01   10.8     0.00010255     -7433.5691144183 -6.49E-03
   400 OT LS       0.91E-01    4.2                    -7433.5755190048
   401 OT CG       0.91E-01   10.8     0.00010162     -7433.5755190098 -6.40E-03
   402 OT LS       0.92E-01    4.2                    -7433.5818226337
   403 OT CG       0.92E-01   10.8     0.00010098     -7433.5818226677 -6.30E-03
   404 OT LS       0.91E-01    4.2                    -7433.5880270739
   405 OT CG       0.91E-01   10.8     0.00010009     -7433.5880271434 -6.20E-03
   406 OT LS       0.92E-01    4.2                    -7433.5941543963
   407 OT CG       0.92E-01   11.1     0.00009914     -7433.5941545632 -6.13E-03
   408 OT LS       0.92E-01    4.2                    -7433.6001979828
   409 OT CG       0.92E-01   10.8     0.00009839     -7433.6001981555 -6.04E-03
   410 OT LS       0.92E-01    4.2                    -7433.6061572822
   411 OT CG       0.92E-01   10.8     0.00009760     -7433.6061572895 -5.96E-03
   412 OT LS       0.92E-01    4.2                    -7433.6120040971
   413 OT CG       0.92E-01   10.9     0.00009701     -7433.6120041496 -5.85E-03
   414 OT LS       0.92E-01    4.2                    -7433.6177667102
   415 OT CG       0.92E-01   10.9     0.00009638     -7433.6177667462 -5.76E-03
   416 OT LS       0.91E-01    4.2                    -7433.6233976386
   417 OT CG       0.91E-01   12.0     0.00009584     -7433.6233981928 -5.63E-03
   418 OT LS       0.91E-01    4.2                    -7433.6289690454
   419 OT CG       0.91E-01   10.8     0.00009501     -7433.6289690465 -5.57E-03
   420 OT LS       0.91E-01    4.2                    -7433.6344492924
   421 OT CG       0.91E-01   10.8     0.00009433     -7433.6344492959 -5.48E-03
   422 OT LS       0.92E-01    4.2                    -7433.6398809737
   423 OT CG       0.92E-01   11.0     0.00009346     -7433.6398811365 -5.43E-03
   424 OT LS       0.92E-01    4.2                    -7433.6452402738
   425 OT CG       0.92E-01   10.8     0.00009270     -7433.6452404109 -5.36E-03
   426 OT LS       0.93E-01    4.2                    -7433.6505433699
   427 OT CG       0.93E-01   10.8     0.00009195     -7433.6505435478 -5.30E-03
   428 OT LS       0.93E-01    4.2                    -7433.6557830519
   429 OT CG       0.93E-01   10.8     0.00009141     -7433.6557831440 -5.24E-03
   430 OT LS       0.93E-01    5.9                    -7433.6609318964
   431 OT CG       0.93E-01   17.0     0.00009110     -7433.6609320793 -5.15E-03
   432 OT LS       0.92E-01    4.2                    -7433.6659993156
   433 OT CG       0.92E-01   10.8     0.00009054     -7433.6659997273 -5.07E-03
   434 OT LS       0.91E-01    4.2                    -7433.6709911221
   435 OT CG       0.91E-01   10.8     0.00008996     -7433.6709911592 -4.99E-03
   436 OT LS       0.91E-01    4.2                    -7433.6759183101
   437 OT CG       0.91E-01   10.8     0.00008922     -7433.6759183104 -4.93E-03
   438 OT LS       0.91E-01    4.2                    -7433.6807649274
   439 OT CG       0.91E-01   11.0     0.00008875     -7433.6807649274 -4.85E-03
   440 OT LS       0.91E-01    4.2                    -7433.6855500638
   441 OT CG       0.91E-01   10.8     0.00008791     -7433.6855500854 -4.79E-03
   442 OT LS       0.92E-01    4.2                    -7433.6903040770
   443 OT CG       0.92E-01   10.8     0.00008720     -7433.6903048154 -4.75E-03
   444 OT LS       0.93E-01    4.2                    -7433.6949991405
   445 OT CG       0.93E-01   10.8     0.00008673     -7433.6949991978 -4.69E-03
   446 OT LS       0.92E-01    4.2                    -7433.6996156386
   447 OT CG       0.92E-01   10.8     0.00008636     -7433.6996158064 -4.62E-03
   448 OT LS       0.92E-01    4.2                    -7433.7041689919
   449 OT CG       0.92E-01   10.8     0.00008581     -7433.7041691165 -4.55E-03
   450 OT LS       0.92E-01    4.2                    -7433.7086564410
   451 OT CG       0.92E-01   10.8     0.00008519     -7433.7086564542 -4.49E-03
   452 OT LS       0.92E-01    4.2                    -7433.7130826101
   453 OT CG       0.92E-01   10.8     0.00008456     -7433.7130826123 -4.43E-03
   454 OT LS       0.92E-01    4.2                    -7433.7174468932
   455 OT CG       0.92E-01   11.0     0.00008404     -7433.7174468947 -4.36E-03
   456 OT LS       0.92E-01    4.2                    -7433.7217688544
   457 OT CG       0.92E-01   10.8     0.00008348     -7433.7217688806 -4.32E-03
   458 OT LS       0.92E-01    4.2                    -7433.7260420889
   459 OT CG       0.92E-01   10.8     0.00008302     -7433.7260421099 -4.27E-03
   460 OT LS       0.92E-01    4.2                    -7433.7302703080
   461 OT CG       0.92E-01   10.8     0.00008254     -7433.7302703084 -4.23E-03
   462 OT LS       0.92E-01    4.2                    -7433.7344336859
   463 OT CG       0.92E-01   10.8     0.00008199     -7433.7344337463 -4.16E-03
   464 OT LS       0.92E-01    4.2                    -7433.7385507891
   465 OT CG       0.92E-01   10.8     0.00008143     -7433.7385508036 -4.12E-03
   466 OT LS       0.92E-01    4.2                    -7433.7426076540
   467 OT CG       0.92E-01   10.8     0.00008085     -7433.7426076563 -4.06E-03
   468 OT LS       0.92E-01    4.2                    -7433.7466084786
   469 OT CG       0.92E-01   10.8     0.00008020     -7433.7466084790 -4.00E-03
   470 OT LS       0.92E-01    4.2                    -7433.7505696477
   471 OT CG       0.92E-01   10.9     0.00007964     -7433.7505697995 -3.96E-03
   472 OT LS       0.93E-01    4.2                    -7433.7544775166
   473 OT CG       0.93E-01   10.8     0.00007919     -7433.7544775167 -3.91E-03
   474 OT LS       0.93E-01    4.2                    -7433.7583469164
   475 OT CG       0.93E-01   10.8     0.00007884     -7433.7583469275 -3.87E-03
   476 OT LS       0.92E-01    4.2                    -7433.7621610447
   477 OT CG       0.92E-01   10.8     0.00007856     -7433.7621611621 -3.81E-03
   478 OT LS       0.92E-01    4.2                    -7433.7659313142
   479 OT CG       0.92E-01   10.8     0.00007808     -7433.7659313893 -3.77E-03
   480 OT LS       0.92E-01    4.2                    -7433.7696549766
   481 OT CG       0.92E-01   10.8     0.00007757     -7433.7696549770 -3.72E-03
   482 OT LS       0.92E-01    4.2                    -7433.7733450468
   483 OT CG       0.92E-01   10.8     0.00007708     -7433.7733451009 -3.69E-03
   484 OT LS       0.92E-01    4.2                    -7433.7769863091
   485 OT CG       0.92E-01   10.8     0.00007655     -7433.7769863100 -3.64E-03
   486 OT LS       0.92E-01    4.2                    -7433.7805801896
   487 OT CG       0.92E-01   11.0     0.00007608     -7433.7805801923 -3.59E-03
   488 OT LS       0.92E-01    4.2                    -7433.7841305655
   489 OT CG       0.92E-01   10.9     0.00007562     -7433.7841305655 -3.55E-03
   490 OT LS       0.92E-01    4.2                    -7433.7876397676
   491 OT CG       0.92E-01   10.9     0.00007535     -7433.7876397682 -3.51E-03
   492 OT LS       0.92E-01    4.2                    -7433.7911040256
   493 OT CG       0.92E-01   10.9     0.00007494     -7433.7911041362 -3.46E-03
   494 OT LS       0.92E-01    4.2                    -7433.7945302943
   495 OT CG       0.92E-01   12.5     0.00007447     -7433.7945302947 -3.43E-03
   496 OT LS       0.91E-01    4.2                    -7433.7979059079
   497 OT CG       0.91E-01   10.9     0.00007418     -7433.7979059235 -3.38E-03
   498 OT LS       0.91E-01    4.2                    -7433.8012454139
   499 OT CG       0.91E-01   10.8     0.00007356     -7433.8012454458 -3.34E-03
   500 OT LS       0.92E-01    4.2                    -7433.8045512861

  Leaving inner SCF loop after reaching   500 steps.


  Electronic density on regular grids:      -3285.9999971306        0.0000028694
  Core density on regular grids:             3285.9999998090       -0.0000001910
  Total charge density on r-space grids:        0.0000026784
  Total charge density g-space grids:           0.0000026784

  Overlap energy of the core charge distribution:               0.00000830305433
  Self energy of the core charge distribution:             -19132.45788526877732
  Core Hamiltonian energy:                                   5428.33200667365418
  Hartree energy:                                            8004.23339163156561
  Exchange-correlation energy:                              -1731.77940736857408
  Dispersion energy:                                           -2.13266525700004

  Total energy:                                             -7433.80455128607809

  outer SCF iter =    1 RMS gradient =   0.74E-04 energy =      -7433.8045512861

  ----------------------------------- OT ---------------------------------------
  Minimizer      : CG                  : conjugate gradient
  Preconditioner : FULL_ALL            : diagonalization, state selective
  Precond_solver : DEFAULT
  Line search    : 2PNT                : 2 energies, one gradient
  stepsize       :    0.15000000                  energy_gap     :    0.00100000
  eps_taylor     :   0.10000E-15                  max_taylor     :             4
  ----------------------------------- OT ---------------------------------------

  Step     Update method      Time    Convergence         Total energy    Change
  ------------------------------------------------------------------------------
     1 OT CG       0.15E+00   45.6     0.00048979     -7433.8045514297 -3.31E-03
     2 OT LS       0.25E+00    4.0                    -7434.1391590632
     3 OT CG       0.25E+00   10.7     0.00002878     -7434.2011201819 -3.97E-01
     4 OT LS       0.74E-01    4.0                    -7434.1992517503
     5 OT CG       0.74E-01   16.7     0.00000947     -7434.2015275940 -4.07E-04
     6 OT LS       0.66E-01    5.2                    -7434.2015667067
     7 OT CG       0.66E-01   10.7     0.00000346     -7434.2015672217 -3.96E-05
     8 OT LS       0.12E+00    4.0                    -7434.2015748110
     9 OT CG       0.12E+00   10.7     0.00000156     -7434.2015766062 -9.38E-06
    10 OT LS       0.93E-01    4.0                    -7434.2015779967
    11 OT CG       0.93E-01   10.7     0.00000056     -7434.2015781032 -1.50E-06

  *** SCF run converged in    11 steps ***


  Electronic density on regular grids:      -3285.9999971304        0.0000028696
  Core density on regular grids:             3285.9999998090       -0.0000001910
  Total charge density on r-space grids:        0.0000026786
  Total charge density g-space grids:           0.0000026786

  Overlap energy of the core charge distribution:               0.00000830305433
  Self energy of the core charge distribution:             -19132.45788526877732
  Core Hamiltonian energy:                                   5427.99378053805231
  Hartree energy:                                            8004.25645032826105
  Exchange-correlation energy:                              -1731.86126674678917
  Dispersion energy:                                           -2.13266525700004

  Total energy:                                             -7434.20157810319961

  outer SCF iter =    2 RMS gradient =   0.56E-06 energy =      -7434.2015781032
  outer SCF loop converged in   2 iterations or  511 steps


 ENERGY| Total FORCE_EVAL ( QS ) energy (a.u.):            -7434.201578337523642


 ATOMIC FORCES in [a.u.]

 # Atom   Kind   Element          X              Y              Z
      1      1      Ti          0.00000000     0.00000000     0.00000000
      2      2      Si          0.00000000     0.00000000     0.00000000
      3      2      Si          0.00000000     0.00000000     0.00000000
      4      2      Si          0.00000000     0.00000000     0.00000000
      5      2      Si          0.00000000     0.00000000     0.00000000
      6      2      Si          0.00000000     0.00000000     0.00000000
      7      2      Si          0.00000000     0.00000000     0.00000000
      8      2      Si          0.00000000     0.00000000     0.00000000
      9      2      Si          0.00000000     0.00000000     0.00000000
     10      2      Si          0.00000000     0.00000000     0.00000000
     11      2      Si          0.00000000     0.00000000     0.00000000
     12      2      Si          0.00000000     0.00000000     0.00000000
     13      2      Si          0.00000000     0.00000000     0.00000000
     14      2      Si          0.00000000     0.00000000     0.00000000
     15      2      Si          0.00000000     0.00000000     0.00000000
     16      2      Si          0.00000000     0.00000000     0.00000000
     17      2      Si          0.00000000     0.00000000     0.00000000
     18      2      Si          0.00000000     0.00000000     0.00000000
     19      2      Si          0.00000000     0.00000000     0.00000000
     20      2      Si          0.00000000     0.00000000     0.00000000
     21      2      Si          0.00000000     0.00000000     0.00000000
     22      2      Si          0.00000000     0.00000000     0.00000000
     23      2      Si          0.00000000     0.00000000     0.00000000
     24      2      Si          0.00000000     0.00000000     0.00000000
     25      2      Si          0.00000000     0.00000000     0.00000000
     26      2      Si          0.00000000     0.00000000     0.00000000
     27      2      Si          0.00000000     0.00000000     0.00000000
     28      2      Si          0.00000000     0.00000000     0.00000000
     29      2      Si          0.00000000     0.00000000     0.00000000
     30      2      Si          0.00000000     0.00000000     0.00000000
     31      2      Si          0.00000000     0.00000000     0.00000000
     32      2      Si          0.00000000     0.00000000     0.00000000
     33      2      Si          0.00000000     0.00000000     0.00000000
     34      2      Si          0.00000000     0.00000000     0.00000000
     35      2      Si          0.00000000     0.00000000     0.00000000
     36      2      Si          0.00000000     0.00000000     0.00000000
     37      2      Si          0.00000000     0.00000000     0.00000000
     38      2      Si          0.00000000     0.00000000     0.00000000
     39      2      Si          0.00000000     0.00000000     0.00000000
     40      2      Si          0.00000000     0.00000000     0.00000000
     41      2      Si          0.00000000     0.00000000     0.00000000
     42      2      Si          0.00000000     0.00000000     0.00000000
     43      2      Si          0.00000000     0.00000000     0.00000000
     44      2      Si          0.00000000     0.00000000     0.00000000
     45      2      Si          0.00000000     0.00000000     0.00000000
     46      2      Si          0.00000000     0.00000000     0.00000000
     47      2      Si          0.00000000     0.00000000     0.00000000
     48      2      Si          0.00000000     0.00000000     0.00000000
     49      2      Si          0.00000000     0.00000000     0.00000000
     50      2      Si          0.00000000     0.00000000     0.00000000
     51      2      Si          0.00000000     0.00000000     0.00000000
     52      2      Si          0.00000000     0.00000000     0.00000000
     53      2      Si          0.00000000     0.00000000     0.00000000
     54      2      Si          0.00000000     0.00000000     0.00000000
     55      2      Si          0.00000000     0.00000000     0.00000000
     56      2      Si          0.00000000     0.00000000     0.00000000
     57      2      Si          0.00000000     0.00000000     0.00000000
     58      2      Si          0.00000000     0.00000000     0.00000000
     59      2      Si          0.00000000     0.00000000     0.00000000
     60      2      Si          0.00000000     0.00000000     0.00000000
     61      2      Si          0.00000000     0.00000000     0.00000000
     62      2      Si          0.00000000     0.00000000     0.00000000
     63      2      Si          0.00000000     0.00000000     0.00000000
     64      2      Si          0.00000000     0.00000000     0.00000000
     65      2      Si          0.00000000     0.00000000     0.00000000
     66      2      Si          0.00000000     0.00000000     0.00000000
     67      2      Si          0.00000000     0.00000000     0.00000000
     68      2      Si          0.00000000     0.00000000     0.00000000
     69      2      Si          0.00000000     0.00000000     0.00000000
     70      2      Si          0.00000000     0.00000000     0.00000000
     71      2      Si          0.00000000     0.00000000     0.00000000
     72      2      Si          0.00000000     0.00000000     0.00000000
     73      2      Si          0.00000000     0.00000000     0.00000000
     74      2      Si          0.00000000     0.00000000     0.00000000
     75      2      Si          0.00000000     0.00000000     0.00000000
     76      2      Si          0.00000000     0.00000000     0.00000000
     77      2      Si          0.00000000     0.00000000     0.00000000
     78      2      Si          0.00000000     0.00000000     0.00000000
     79      2      Si          0.00000000     0.00000000     0.00000000
     80      2      Si          0.00000000     0.00000000     0.00000000
     81      2      Si          0.00000000     0.00000000     0.00000000
     82      2      Si          0.00000000     0.00000000     0.00000000
     83      2      Si          0.00000000     0.00000000     0.00000000
     84      2      Si          0.00000000     0.00000000     0.00000000
     85      2      Si          0.00000000     0.00000000     0.00000000
     86      2      Si          0.00000000     0.00000000     0.00000000
     87      2      Si          0.00000000     0.00000000     0.00000000
     88      2      Si          0.00000000     0.00000000     0.00000000
     89      2      Si          0.00000000     0.00000000     0.00000000
     90      2      Si          0.00000000     0.00000000     0.00000000
     91      2      Si          0.00000000     0.00000000     0.00000000
     92      2      Si          0.00000000     0.00000000     0.00000000
     93      2      Si          0.00000000     0.00000000     0.00000000
     94      2      Si          0.00000000     0.00000000     0.00000000
     95      2      Si          0.00000000     0.00000000     0.00000000
     96      2      Si          0.00000000     0.00000000     0.00000000
     97      2      Si          0.00000000     0.00000000     0.00000000
     98      2      Si          0.00000000     0.00000000     0.00000000
     99      2      Si          0.00000000     0.00000000     0.00000000
    100      2      Si          0.00000000     0.00000000     0.00000000
    101      2      Si          0.00000000     0.00000000     0.00000000
    102      2      Si          0.00000000     0.00000000     0.00000000
    103      2      Si          0.00000000     0.00000000     0.00000000
    104      2      Si          0.00000000     0.00000000     0.00000000
    105      2      Si          0.00000000     0.00000000     0.00000000
    106      2      Si          0.00000000     0.00000000     0.00000000
    107      2      Si          0.00000000     0.00000000     0.00000000
    108      2      Si          0.00000000     0.00000000     0.00000000
    109      2      Si          0.00000000     0.00000000     0.00000000
    110      2      Si          0.00000000     0.00000000     0.00000000
    111      2      Si          0.00000000     0.00000000     0.00000000
    112      2      Si          0.00000000     0.00000000     0.00000000
    113      2      Si          0.00000000     0.00000000     0.00000000
    114      2      Si          0.00000000     0.00000000     0.00000000
    115      2      Si          0.00000000     0.00000000     0.00000000
    116      2      Si          0.00000000     0.00000000     0.00000000
    117      2      Si          0.00000000     0.00000000     0.00000000
    118      2      Si          0.00000000     0.00000000     0.00000000
    119      2      Si          0.00000000     0.00000000     0.00000000
    120      2      Si          0.00000000     0.00000000     0.00000000
    121      2      Si          0.00000000     0.00000000     0.00000000
    122      2      Si          0.00000000     0.00000000     0.00000000
    123      2      Si          0.00000000     0.00000000     0.00000000
    124      2      Si          0.00000000     0.00000000     0.00000000
    125      2      Si          0.00000000     0.00000000     0.00000000
    126      2      Si          0.00000000     0.00000000     0.00000000
    127      2      Si          0.00000000     0.00000000     0.00000000
    128      2      Si          0.00000000     0.00000000     0.00000000
    129      2      Si          0.00000000     0.00000000     0.00000000
    130      2      Si          0.00000000     0.00000000     0.00000000
    131      2      Si          0.00000000     0.00000000     0.00000000
    132      2      Si          0.00000000     0.00000000     0.00000000
    133      2      Si          0.00000000     0.00000000     0.00000000
    134      2      Si          0.00000000     0.00000000     0.00000000
    135      2      Si          0.00000000     0.00000000     0.00000000
    136      2      Si          0.00000000     0.00000000     0.00000000
    137      2      Si          0.00000000     0.00000000     0.00000000
    138      2      Si          0.00000000     0.00000000     0.00000000
    139      2      Si          0.00000000     0.00000000     0.00000000
    140      2      Si          0.00000000     0.00000000     0.00000000
    141      2      Si          0.00000000     0.00000000     0.00000000
    142      2      Si          0.00000000     0.00000000     0.00000000
    143      2      Si          0.00000000     0.00000000     0.00000000
    144      2      Si          0.00000000     0.00000000     0.00000000
    145      2      Si          0.00000000     0.00000000     0.00000000
    146      2      Si          0.00000000     0.00000000     0.00000000
    147      2      Si          0.00000000     0.00000000     0.00000000
    148      2      Si          0.00000000     0.00000000     0.00000000
    149      2      Si          0.00000000     0.00000000     0.00000000
    150      2      Si          0.00000000     0.00000000     0.00000000
    151      2      Si          0.00000000     0.00000000     0.00000000
    152      2      Si          0.00000000     0.00000000     0.00000000
    153      2      Si          0.00000000     0.00000000     0.00000000
    154      2      Si          0.00000000     0.00000000     0.00000000
    155      2      Si          0.00000000     0.00000000     0.00000000
    156      2      Si          0.00000000     0.00000000     0.00000000
    157      2      Si          0.00000000     0.00000000     0.00000000
    158      2      Si          0.00000000     0.00000000     0.00000000
    159      2      Si          0.00000000     0.00000000     0.00000000
    160      2      Si          0.00000000     0.00000000     0.00000000
    161      2      Si          0.00000000     0.00000000     0.00000000
    162      2      Si          0.00000000     0.00000000     0.00000000
    163      2      Si          0.00000000     0.00000000     0.00000000
    164      2      Si          0.00000000     0.00000000     0.00000000
    165      2      Si          0.00000000     0.00000000     0.00000000
    166      2      Si          0.00000000     0.00000000     0.00000000
    167      2      Si          0.00000000     0.00000000     0.00000000
    168      2      Si          0.00000000     0.00000000     0.00000000
    169      2      Si          0.00000000     0.00000000     0.00000000
    170      2      Si          0.00000000     0.00000000     0.00000000
    171      2      Si          0.00000000     0.00000000     0.00000000
    172      2      Si          0.00000000     0.00000000     0.00000000
    173      2      Si          0.00000000     0.00000000     0.00000000
    174      2      Si          0.00000000     0.00000000     0.00000000
    175      2      Si          0.00000000     0.00000000     0.00000000
    176      2      Si          0.00000000     0.00000000     0.00000000
    177      2      Si          0.00000000     0.00000000     0.00000000
    178      2      Si          0.00000000     0.00000000     0.00000000
    179      2      Si          0.00000000     0.00000000     0.00000000
    180      2      Si          0.00000000     0.00000000     0.00000000
    181      2      Si          0.00000000     0.00000000     0.00000000
    182      2      Si          0.00000000     0.00000000     0.00000000
    183      2      Si          0.00000000     0.00000000     0.00000000
    184      2      Si          0.00000000     0.00000000     0.00000000
    185      2      Si          0.00000000     0.00000000     0.00000000
    186      2      Si          0.00000000     0.00000000     0.00000000
    187      2      Si          0.00000000     0.00000000     0.00000000
    188      2      Si          0.00000000     0.00000000     0.00000000
    189      2      Si          0.00000000     0.00000000     0.00000000
    190      2      Si          0.00000000     0.00000000     0.00000000
    191      2      Si          0.00000000     0.00000000     0.00000000
    192      3      O           0.00000000     0.00000000     0.00000000
    193      3      O           0.00000000     0.00000000     0.00000000
    194      3      O           0.00000000     0.00000000     0.00000000
    195      3      O           0.00000000     0.00000000     0.00000000
    196      3      O           0.00000000     0.00000000     0.00000000
    197      3      O           0.00000000     0.00000000     0.00000000
    198      3      O           0.00000000     0.00000000     0.00000000
    199      3      O           0.00000000     0.00000000     0.00000000
    200      3      O           0.00000000     0.00000000     0.00000000
    201      3      O           0.00000000     0.00000000     0.00000000
    202      3      O           0.00000000     0.00000000     0.00000000
    203      3      O           0.00000000     0.00000000     0.00000000
    204      3      O           0.00000000     0.00000000     0.00000000
    205      3      O           0.00000000     0.00000000     0.00000000
    206      3      O           0.00000000     0.00000000     0.00000000
    207      3      O           0.00000000     0.00000000     0.00000000
    208      3      O           0.00000000     0.00000000     0.00000000
    209      3      O           0.00000000     0.00000000     0.00000000
    210      3      O           0.00000000     0.00000000     0.00000000
    211      3      O           0.00000000     0.00000000     0.00000000
    212      3      O           0.00000000     0.00000000     0.00000000
    213      3      O           0.00000000     0.00000000     0.00000000
    214      3      O           0.00000000     0.00000000     0.00000000
    215      3      O           0.00000000     0.00000000     0.00000000
    216      3      O           0.00000000     0.00000000     0.00000000
    217      3      O           0.00000000     0.00000000     0.00000000
    218      3      O           0.00000000     0.00000000     0.00000000
    219      3      O           0.00000000     0.00000000     0.00000000
    220      3      O           0.00000000     0.00000000     0.00000000
    221      3      O           0.00000000     0.00000000     0.00000000
    222      3      O           0.00000000     0.00000000     0.00000000
    223      3      O           0.00000000     0.00000000     0.00000000
    224      3      O           0.00000000     0.00000000     0.00000000
    225      3      O           0.00000000     0.00000000     0.00000000
    226      3      O           0.00000000     0.00000000     0.00000000
    227      3      O           0.00000000     0.00000000     0.00000000
    228      3      O           0.00000000     0.00000000     0.00000000
    229      3      O           0.00000000     0.00000000     0.00000000
    230      3      O           0.00000000     0.00000000     0.00000000
    231      3      O           0.00000000     0.00000000     0.00000000
    232      3      O           0.00000000     0.00000000     0.00000000
    233      3      O           0.00000000     0.00000000     0.00000000
    234      3      O           0.00000000     0.00000000     0.00000000
    235      3      O           0.00000000     0.00000000     0.00000000
    236      3      O           0.00000000     0.00000000     0.00000000
    237      3      O           0.00000000     0.00000000     0.00000000
    238      3      O           0.00000000     0.00000000     0.00000000
    239      3      O           0.00000000     0.00000000     0.00000000
    240      3      O           0.00000000     0.00000000     0.00000000
    241      3      O           0.00000000     0.00000000     0.00000000
    242      3      O           0.00000000     0.00000000     0.00000000
    243      3      O           0.00000000     0.00000000     0.00000000
    244      3      O           0.00000000     0.00000000     0.00000000
    245      3      O           0.00000000     0.00000000     0.00000000
    246      3      O           0.00000000     0.00000000     0.00000000
    247      3      O           0.00000000     0.00000000     0.00000000
    248      3      O           0.00000000     0.00000000     0.00000000
    249      3      O           0.00000000     0.00000000     0.00000000
    250      3      O           0.00000000     0.00000000     0.00000000
    251      3      O           0.00000000     0.00000000     0.00000000
    252      3      O           0.00000000     0.00000000     0.00000000
    253      3      O           0.00000000     0.00000000     0.00000000
    254      3      O           0.00000000     0.00000000     0.00000000
    255      3      O           0.00000000     0.00000000     0.00000000
    256      3      O           0.00000000     0.00000000     0.00000000
    257      3      O           0.00000000     0.00000000     0.00000000
    258      3      O           0.00000000     0.00000000     0.00000000
    259      3      O           0.00000000     0.00000000     0.00000000
    260      3      O           0.00000000     0.00000000     0.00000000
    261      3      O           0.00000000     0.00000000     0.00000000
    262      3      O           0.00000000     0.00000000     0.00000000
    263      3      O           0.00000000     0.00000000     0.00000000
    264      3      O           0.00000000     0.00000000     0.00000000
    265      3      O           0.00000000     0.00000000     0.00000000
    266      3      O           0.00000000     0.00000000     0.00000000
    267      3      O           0.00000000     0.00000000     0.00000000
    268      3      O           0.00000000     0.00000000     0.00000000
    269      3      O           0.00000000     0.00000000     0.00000000
    270      3      O           0.00000000     0.00000000     0.00000000
    271      3      O           0.00000000     0.00000000     0.00000000
    272      3      O           0.00000000     0.00000000     0.00000000
    273      3      O           0.00000000     0.00000000     0.00000000
    274      3      O           0.00000000     0.00000000     0.00000000
    275      3      O           0.00000000     0.00000000     0.00000000
    276      3      O           0.00000000     0.00000000     0.00000000
    277      3      O           0.00000000     0.00000000     0.00000000
    278      3      O           0.00000000     0.00000000     0.00000000
    279      3      O           0.00000000     0.00000000     0.00000000
    280      3      O           0.00000000     0.00000000     0.00000000
    281      3      O           0.00000000     0.00000000     0.00000000
    282      3      O           0.00000000     0.00000000     0.00000000
    283      3      O           0.00000000     0.00000000     0.00000000
    284      3      O           0.00000000     0.00000000     0.00000000
    285      3      O           0.00000000     0.00000000     0.00000000
    286      3      O           0.00000000     0.00000000     0.00000000
    287      3      O           0.00000000     0.00000000     0.00000000
    288      3      O           0.00000000     0.00000000     0.00000000
    289      3      O           0.00000000     0.00000000     0.00000000
    290      3      O           0.00000000     0.00000000     0.00000000
    291      3      O           0.00000000     0.00000000     0.00000000
    292      3      O           0.00000000     0.00000000     0.00000000
    293      3      O           0.00000000     0.00000000     0.00000000
    294      3      O           0.00000000     0.00000000     0.00000000
    295      3      O           0.00000000     0.00000000     0.00000000
    296      3      O           0.00000000     0.00000000     0.00000000
    297      3      O           0.00000000     0.00000000     0.00000000
    298      3      O           0.00000000     0.00000000     0.00000000
    299      3      O           0.00000000     0.00000000     0.00000000
    300      3      O           0.00000000     0.00000000     0.00000000
    301      3      O           0.00000000     0.00000000     0.00000000
    302      3      O           0.00000000     0.00000000     0.00000000
    303      3      O           0.00000000     0.00000000     0.00000000
    304      3      O           0.00000000     0.00000000     0.00000000
    305      3      O           0.00000000     0.00000000     0.00000000
    306      3      O           0.00000000     0.00000000     0.00000000
    307      3      O           0.00000000     0.00000000     0.00000000
    308      3      O           0.00000000     0.00000000     0.00000000
    309      3      O           0.00000000     0.00000000     0.00000000
    310      3      O           0.00000000     0.00000000     0.00000000
    311      3      O           0.00000000     0.00000000     0.00000000
    312      3      O           0.00000000     0.00000000     0.00000000
    313      3      O           0.00000000     0.00000000     0.00000000
    314      3      O           0.00000000     0.00000000     0.00000000
    315      3      O           0.00000000     0.00000000     0.00000000
    316      3      O           0.00000000     0.00000000     0.00000000
    317      3      O           0.00000000     0.00000000     0.00000000
    318      3      O           0.00000000     0.00000000     0.00000000
    319      3      O           0.00000000     0.00000000     0.00000000
    320      3      O           0.00000000     0.00000000     0.00000000
    321      3      O           0.00000000     0.00000000     0.00000000
    322      3      O           0.00000000     0.00000000     0.00000000
    323      3      O           0.00000000     0.00000000     0.00000000
    324      3      O           0.00000000     0.00000000     0.00000000
    325      3      O           0.00000000     0.00000000     0.00000000
    326      3      O           0.00000000     0.00000000     0.00000000
    327      3      O           0.00000000     0.00000000     0.00000000
    328      3      O           0.00000000     0.00000000     0.00000000
    329      3      O           0.00000000     0.00000000     0.00000000
    330      3      O           0.00000000     0.00000000     0.00000000
    331      3      O           0.00000000     0.00000000     0.00000000
    332      3      O           0.00000000     0.00000000     0.00000000
    333      3      O           0.00000000     0.00000000     0.00000000
    334      3      O           0.00000000     0.00000000     0.00000000
    335      3      O           0.00000000     0.00000000     0.00000000
    336      3      O           0.00000000     0.00000000     0.00000000
    337      3      O           0.00000000     0.00000000     0.00000000
    338      3      O           0.00000000     0.00000000     0.00000000
    339      3      O           0.00000000     0.00000000     0.00000000
    340      3      O           0.00000000     0.00000000     0.00000000
    341      3      O           0.00000000     0.00000000     0.00000000
    342      3      O           0.00000000     0.00000000     0.00000000
    343      3      O           0.00000000     0.00000000     0.00000000
    344      3      O           0.00000000     0.00000000     0.00000000
    345      3      O           0.00000000     0.00000000     0.00000000
    346      3      O           0.00000000     0.00000000     0.00000000
    347      3      O           0.00000000     0.00000000     0.00000000
    348      3      O           0.00000000     0.00000000     0.00000000
    349      3      O           0.00000000     0.00000000     0.00000000
    350      3      O           0.00000000     0.00000000     0.00000000
    351      3      O           0.00000000     0.00000000     0.00000000
    352      3      O           0.00000000     0.00000000     0.00000000
    353      3      O           0.00000000     0.00000000     0.00000000
    354      3      O           0.00000000     0.00000000     0.00000000
    355      3      O           0.00000000     0.00000000     0.00000000
    356      3      O           0.00000000     0.00000000     0.00000000
    357      3      O           0.00000000     0.00000000     0.00000000
    358      3      O           0.00000000     0.00000000     0.00000000
    359      3      O           0.00000000     0.00000000     0.00000000
    360      3      O           0.00000000     0.00000000     0.00000000
    361      3      O           0.00000000     0.00000000     0.00000000
    362      3      O           0.00000000     0.00000000     0.00000000
    363      3      O           0.00000000     0.00000000     0.00000000
    364      3      O           0.00000000     0.00000000     0.00000000
    365      3      O           0.00000000     0.00000000     0.00000000
    366      3      O           0.00000000     0.00000000     0.00000000
    367      3      O           0.00000000     0.00000000     0.00000000
    368      3      O           0.00000000     0.00000000     0.00000000
    369      3      O           0.00000000     0.00000000     0.00000000
    370      3      O           0.00000000     0.00000000     0.00000000
    371      3      O           0.00000000     0.00000000     0.00000000
    372      3      O           0.00000000     0.00000000     0.00000000
    373      3      O           0.00000000     0.00000000     0.00000000
    374      3      O           0.00000000     0.00000000     0.00000000
    375      3      O           0.00000000     0.00000000     0.00000000
    376      3      O           0.00000000     0.00000000     0.00000000
    377      3      O           0.00000000     0.00000000     0.00000000
    378      3      O           0.00000000     0.00000000     0.00000000
    379      3      O           0.00000000     0.00000000     0.00000000
    380      3      O           0.00000000     0.00000000     0.00000000
    381      3      O           0.00000000     0.00000000     0.00000000
[...]
 flops    13 x    11 x    13         550040667176       0.0%    100.0%      0.0%
 flops   395 x   256 x   160         581480448000       0.0%    100.0%      0.0%
 flops   395 x   267 x   128         646896998400       0.0%    100.0%      0.0%
 flops  2025 x   267 x   139         704942878500       0.0%    100.0%      0.0%
 flops  2028 x   267 x   139         705987238320       0.0%    100.0%      0.0%
 flops    13 x     5 x   128         716613980160       0.0%    100.0%      0.0%
 flops     5 x    13 x   128         724218859520       0.0%    100.0%      0.0%
 flops   416 x   288 x   139         897780049920       0.0%    100.0%      0.0%
 flops   395 x   256 x   667         925912965120       0.0%    100.0%      0.0%
 flops   395 x   256 x   683         948123770880       0.0%    100.0%      0.0%
 flops   416 x   267 x   160         958062643200       0.0%    100.0%      0.0%
 flops   395 x   267 x   675         977280876000       0.0%    100.0%      0.0%
 flops   395 x   288 x   160         981248256000       0.0%    100.0%      0.0%
 flops   395 x   256 x   128        1240491622400       0.0%    100.0%      0.0%
 flops  2025 x   256 x   139        1351800576000       0.0%    100.0%      0.0%
 flops  2028 x   256 x   139        1353803243520       0.0%    100.0%      0.0%
 flops   416 x   267 x   667        1525558814208       0.0%    100.0%      0.0%
 flops   416 x   267 x   683        1562153928192       0.0%    100.0%      0.0%
 flops   395 x   288 x   667        1562478128640       0.0%    100.0%      0.0%
 flops   395 x   288 x   683        1599958863360       0.0%    100.0%      0.0%
 flops   416 x   256 x   160        1837183795200       0.0%    100.0%      0.0%
 flops   395 x   256 x   675        1874036736000       0.0%    100.0%      0.0%
 flops    13 x    13 x   139        1913170512682       0.0%    100.0%      0.0%
 flops   416 x   267 x   128        2043866972160       0.0%    100.0%      0.0%
 flops   395 x   288 x   128        2093329612800       0.0%    100.0%      0.0%
 flops  2025 x   267 x   667        2146471099200       0.0%    100.0%      0.0%
 flops  2028 x   267 x   667        2149651056384       0.0%    100.0%      0.0%
 flops  2025 x   267 x   683        2197960660800       0.0%    100.0%      0.0%
 flops  2028 x   267 x   683        2201216898816       0.0%    100.0%      0.0%
 flops  2025 x   288 x   139        2281163472000       0.0%    100.0%      0.0%
 flops  2028 x   288 x   139        2284542973440       0.0%    100.0%      0.0%
 flops  2025 x   267 x   160        2434335120000       0.0%    100.0%      0.0%
 flops  2028 x   267 x   160        2437941542400       0.0%    100.0%      0.0%
 flops   416 x   256 x   667        2925416153088       0.0%    100.0%      0.0%
 flops   416 x   256 x   683        2995591053312       0.0%    100.0%      0.0%
 flops   416 x   267 x   675        3087712742400       0.0%    100.0%      0.0%
 flops   416 x   288 x   160        3100247654400       0.0%    100.0%      0.0%
 flops   395 x   288 x   675        3162436992000       0.0%    100.0%      0.0%
 flops   416 x   256 x   128        3919325429760       0.0%    100.0%      0.0%
 flops  2025 x   256 x   667        4116079411200       0.0%    100.0%      0.0%
 flops  2028 x   256 x   667        4122177306624       0.0%    100.0%      0.0%
 flops    13 x    32 x     5        4193445509760       0.0%    100.0%      0.0%
 flops     5 x    32 x    13        4193445509760       0.0%    100.0%      0.0%
 flops  2025 x   256 x   683        4214815948800       0.0%    100.0%      0.0%
 flops  2028 x   256 x   683        4221060120576       0.0%    100.0%      0.0%
 flops  2025 x   267 x   675        4344431760000       0.0%    100.0%      0.0%
 flops  2028 x   267 x   675        4350867955200       0.0%    100.0%      0.0%
 flops  2025 x   256 x   160        4668088320000       0.0%    100.0%      0.0%
 flops  2028 x   256 x   160        4675004006400       0.0%    100.0%      0.0%
 flops   416 x   288 x   667        4936639758336       0.0%    100.0%      0.0%
 flops   416 x   288 x   683        5055059902464       0.0%    100.0%      0.0%
 flops  2025 x   267 x   128        5193248256000       0.0%    100.0%      0.0%
 flops  2028 x   267 x   128        5200941957120       0.0%    100.0%      0.0%
 flops   416 x   256 x   675        5921007206400       0.0%    100.0%      0.0%
 flops    13 x    13 x   160        6606631986240       0.0%    100.0%      0.0%
 flops   416 x   288 x   128        6613861662720       0.0%    100.0%      0.0%
 flops  2025 x   288 x   667        6945884006400       0.0%    100.0%      0.0%
 flops  2028 x   288 x   667        6956174204928       0.0%    100.0%      0.0%
 flops  2025 x   288 x   683        7112501913600       0.0%    100.0%      0.0%
 flops  2028 x   288 x   683        7123038953472       0.0%    100.0%      0.0%
 flops  2025 x   288 x   160        7877399040000       0.0%    100.0%      0.0%
 flops  2028 x   288 x   160        7889069260800       0.0%    100.0%      0.0%
 flops  2025 x   256 x   675        8330895360000       0.0%    100.0%      0.0%
 flops  2028 x   256 x   675        8343237427200       0.0%    100.0%      0.0%
 flops  2025 x   256 x   128        9958588416000       0.0%    100.0%      0.0%
 flops  2028 x   256 x   128        9973341880320       0.0%    100.0%      0.0%
 flops   416 x   288 x   675        9991699660800       0.0%    100.0%      0.0%
 flops  2025 x   288 x   675       14058385920000       0.0%    100.0%      0.0%
 flops  2028 x   288 x   675       14079213158400       0.0%    100.0%      0.0%
 flops    13 x    13 x   128       14094148237312       0.0%    100.0%      0.0%
 flops  2025 x   288 x   128       16805117952000       0.0%    100.0%      0.0%
 flops  2028 x   288 x   128       16830014423040       0.0%    100.0%      0.0%
 flops    13 x    32 x    13       81606033530112       0.0%    100.0%      0.0%
 flops inhomo. stacks              80964087752448     100.0%      0.0%      0.0%
 flops total                       484.521349E+12      16.7%     83.3%      0.0%
 flops max/rank                     21.295021E+12      16.7%     83.3%      0.0%
 matmuls inhomo. stacks                    236160     100.0%      0.0%      0.0%
 matmuls total                        10648285528       0.0%    100.0%      0.0%
 number of processed stacks              14929494       1.6%     98.4%      0.0%
 average stack size                                     1.0     724.7       0.0
 marketing flops                   802.573561E+12
 -------------------------------------------------------------------------------
 # multiplications                           9873
 max memory usage/rank             889.692160E+06
 # max total images/rank                        3
 # max 3D layers                                1
 # MPI messages exchanged                 4502088
 MPI messages size (bytes):
  total size                         7.733660E+12
  min size                           0.000000E+00
  max size                          11.291904E+06
  average size                       1.717794E+06
 MPI breakdown and total messages size (bytes):
             size <=      128               18444                        0
       128 < size <=     8192                   0                        0
      8192 < size <=    32768                 696                 22806528
     32768 < size <=   131072                 348                 13625592
    131072 < size <=  4194304             4304040            5778183026200
   4194304 < size <= 16777216              178560            1955447343360
  16777216 < size                               0                        0
 -------------------------------------------------------------------------------

 *** WARNING in dbcsr_mm.F:295 :: Using a non-square number of MPI ranks ***
 *** might lead to poor performance. Used ranks: 24 Suggested: 25 49     ***

 -------------------------------------------------------------------------------
 -                                                                             -
 -                      DBCSR MESSAGE PASSING PERFORMANCE                      -
 -                                                                             -
 -------------------------------------------------------------------------------
 ROUTINE             CALLS      AVE VOLUME [Bytes]
 MP_Group             1028
 MP_Bcast              124                     12.
 MP_Allreduce        50240                    139.
 MP_Alltoall         41527                 642007.
 MP_Wait            552888
 MP_ISend           456312                 774107.
 MP_IRecv           448334                 780859.
 MP_Memory          899230
 -------------------------------------------------------------------------------

 MEMORY| Estimated peak process memory [MiB]                                 849

 -------------------------------------------------------------------------------
 -                                                                             -
 -                         MESSAGE PASSING PERFORMANCE                         -
 -                                                                             -
 -------------------------------------------------------------------------------

 ROUTINE             CALLS      AVE VOLUME [Bytes]
 MP_Group                5
 MP_Bcast            34540                 244856.
 MP_Allreduce        88924                   1213.
 MP_Sync                 5
 MP_Alltoall         11458               34388921.
 MP_SendRecv          2484                  16120.
 MP_ISendRecv        72864                 127093.
 MP_Wait            143209
 MP_ISend            62788                 799205.
 MP_IRecv            62788                 799557.
 MP_Recv              4131                1491926.
 -------------------------------------------------------------------------------


 -------------------------------------------------------------------------------
 -                                                                             -
 -                           R E F E R E N C E S                               -
 -                                                                             -
 -------------------------------------------------------------------------------
 
 CP2K version 7.1, the CP2K developers group (2019).
 CP2K is freely available from https://www.cp2k.org/ .

 Schuett, Ole; Messmer, Peter; Hutter, Juerg; VandeVondele, Joost. 
 Electronic Structure Calculations on Graphics Processing Units, John
 Wiley & Sons, Ltd, 173-190 (2016). 
 GPU-Accelerated Sparse Matrix-Matrix Multiplication for
 Linear Scaling Density Functional Theory.
 https://dx.doi.org/10.1002/9781118670712.ch8

 Borstnik, U; VandeVondele, J; Weber, V; Hutter, J. 
 PARALLEL COMPUTING, 40 (5-6), 47-58 (2014). 
 Sparse matrix multiplication: The distributed block-compressed sparse
 row library.
 https://dx.doi.org/10.1016/j.parco.2014.03.012

 Hutter, J; Iannuzzi, M; Schiffmann, F; VandeVondele, J. 
 WIREs Comput Mol Sci., 4 (1), 15-25 (2014). 
 CP2K: atomistic simulations of condensed matter systems.
 https://dx.doi.org/10.1002/wcms.1159

 Grimme, S; Ehrlich, S; Goerigk, L. 
 JOURNAL OF COMPUTATIONAL CHEMISTRY, 32, 1456 (2011). 
 Effect of the damping function in dispersion corrected density functional theory.
 https://dx.doi.org/10.1002/jcc.21759

 Grimme, S; Antony, J; Ehrlich, S; Krieg, H. 
 JOURNAL OF CHEMICAL PHYSICS, 132 (15), 154104 (2010). 
 A consistent and accurate ab initio parametrization of density
 functional dispersion correction (DFT-D) for the 94 elements H-Pu.
 https://dx.doi.org/10.1063/1.3382344

 VandeVondele, J; Hutter, J. 
 JOURNAL OF CHEMICAL PHYSICS, 127 (11), 114105 (2007). 
 Gaussian basis sets for accurate calculations on molecular systems in
 gas and condensed phases.
 https://dx.doi.org/10.1063/1.2770708

 Krack, M. 
 THEORETICAL CHEMISTRY ACCOUNTS, 114 (1-3), 145-152 (2005). 
 Pseudopotentials for H to Kr optimized for gradient-corrected
 exchange-correlation functionals.
 https://dx.doi.org/10.1007/s00214-005-0655-y

 VandeVondele, J; Krack, M; Mohamed, F; Parrinello, M; Chassaing, T;
 Hutter, J. COMPUTER PHYSICS COMMUNICATIONS, 167 (2), 103-128 (2005). 
 QUICKSTEP: Fast and accurate density functional calculations using a
 mixed Gaussian and plane waves approach.
 https://dx.doi.org/10.1016/j.cpc.2004.12.014

 Frigo, M; Johnson, SG. 
 PROCEEDINGS OF THE IEEE, 93 (2), 216-231 (2005). 
 The design and implementation of FFTW3.
 https://dx.doi.org/10.1109/JPROC.2004.840301

 Kolafa, J. 
 JOURNAL OF COMPUTATIONAL CHEMISTRY, 25 (3), 335-342 (2004). 
 Time-reversible always stable predictor-corrector method for molecular dynamics of polarizable molecules.
 https://dx.doi.org/10.1002/jcc.10385

 VandeVondele, J; Hutter, J. 
 JOURNAL OF CHEMICAL PHYSICS, 118 (10), 4365-4369 (2003). 
 An efficient orbital transformation method for electronic structure
 calculations.
 https://dx.doi.org/10.1063/1.1543154

 Hartwigsen, C; Goedecker, S; Hutter, J. 
 PHYSICAL REVIEW B, 58 (7), 3641-3662 (1998). 
 Relativistic separable dual-space Gaussian pseudopotentials from H to Rn.
 https://dx.doi.org/10.1103/PhysRevB.58.3641

 Lippert, G; Hutter, J; Parrinello, M. 
 MOLECULAR PHYSICS, 92 (3), 477-487 (1997). 
 A hybrid Gaussian and plane wave density functional scheme.
 https://dx.doi.org/10.1080/002689797170220

 Perdew, JP; Burke, K; Ernzerhof, M. 
 PHYSICAL REVIEW LETTERS, 77 (18), 3865-3868 (1996). 
 Generalized gradient approximation made simple.
 https://dx.doi.org/10.1103/PhysRevLett.77.3865

 Goedecker, S; Teter, M; Hutter, J. 
 PHYSICAL REVIEW B, 54 (3), 1703-1710 (1996). 
 Separable dual-space Gaussian pseudopotentials.
 https://dx.doi.org/10.1103/PhysRevB.54.1703


 -------------------------------------------------------------------------------
 -                                                                             -
 -                                T I M I N G                                  -
 -                                                                             -
 -------------------------------------------------------------------------------
 SUBROUTINE                       CALLS  ASD         SELF TIME        TOTAL TIME
                                MAXIMUM       AVERAGE  MAXIMUM  AVERAGE  MAXIMUM
 CP2K                                 1  1.0    0.016    0.017 6438.295 6438.311
 cp_geo_opt                           1  2.0    0.000    0.000 6437.007 6437.024
 geoopt_bfgs                          1  3.0    0.245    0.277 6437.007 6437.024
 cp_eval_at                          28  4.0    0.006    0.045 6414.922 6414.989
 qs_forces                           27  5.0    0.009    0.009 6339.665 6339.681
 qs_energies                         28  6.0    0.003    0.003 6159.973 6160.198
 scf_env_do_scf                      28  7.0    0.002    0.003 5980.818 5980.845
 scf_env_do_scf_inner_loop          658  8.0    0.028    0.055 4983.436 4987.471
 rebuild_ks_matrix                  685  9.9    0.003    0.004 2384.674 2387.968
 qs_ks_build_kohn_sham_matrix       685 10.9    0.090    0.098 2384.670 2387.964
 qs_ks_update_qs_env                687  9.0    0.005    0.006 2192.629 2195.670
 dbcsr_multiply_generic            9873 13.8    0.742    0.834 1683.286 1699.604
 qs_scf_new_mos                     658  9.0    0.005    0.011 1670.340 1680.513
 qs_scf_loop_do_ot                  658 10.0    0.005    0.007 1670.335 1680.506
 ot_scf_mini                        658 11.0    0.022    0.029 1559.920 1561.939
 multiply_cannon                   9873 14.8    1.944    2.224 1397.877 1453.706
 qs_rho_update_rho                  686  9.0    0.004    0.006 1295.983 1298.751
 calculate_rho_elec                 686 10.0  887.335  933.114 1295.979 1298.747
 multiply_cannon_multrec         118476 15.8 1192.887 1250.067 1192.994 1250.176
 sum_up_and_integrate               370 11.8    1.834    1.890 1145.088 1145.189
 integrate_v_rspace                 370 12.8  967.716  992.811 1143.252 1143.386
 qs_vxc_create                      685 11.9    0.012    0.013 1022.310 1022.904
 init_scf_loop                       29  8.0    0.001    0.002  992.648  992.723
 pw_transfer                      11269 13.3    0.880    0.942  960.664  973.658
 fft_wrap_pw1pw2                   9899 14.4    0.124    0.135  946.008  958.993
 fft_wrap_pw1pw2_180               5675 15.7   79.241   81.375  912.264  924.486
 ot_mini                            658 12.0    0.004    0.005  916.043  921.012
 prepare_preconditioner              29  9.0    0.000    0.000  827.977  828.525
 make_preconditioner                 29 10.0    0.001    0.001  800.333  800.625
 make_full_all                       29 11.0    0.048    0.068  774.502  774.568
 xc_rho_set_and_dset_create         685 13.9    5.734    5.801  732.602  737.110
 fft3d_ps                          9899 16.4  391.659  404.445  710.926  723.108
 xc_vxc_pw_create                   370 12.8   15.529   17.059  681.975  682.554
 cp_fm_syevd                        614 14.1    0.009    0.013  620.191  621.741
 cp_fm_syevd_base                   614 15.1  620.181  621.732  620.181  621.732
 apply_preconditioner_dbcsr         372 14.0    0.001    0.001  511.570  520.949
 apply_all                          372 15.0    0.921    0.995  511.570  520.948
 ot_new_cg_direction                343 13.0    0.006    0.008  484.766  484.780
 qs_ot_get_derivative               343 13.0    0.004    0.005  426.301  429.626
 density_rs2pw                      686 11.0    0.047    0.054  368.113  406.123
 xc_exc_calc                        315 13.0    1.330    1.338  340.323  340.344
 xc_functional_eval                 685 14.9    0.008    0.010  332.643  337.103
 pbe_lda_eval                       685 15.9  332.636  337.095  332.636  337.095
 qs_ot_get_p                        687 11.9    0.005    0.006  282.994  292.691
 rs_pw_transfer                    5335 13.0    0.078    0.093  185.236  222.598
 x_to_yz                           4961 18.1  150.818  151.899  208.851  212.518
 qs_ot_get_derivative_diag          249 14.0    0.008    0.010  208.351  210.982
 qs_ot_get_orbitals                 658 12.0    0.004    0.006  199.301  203.154
 mp_waitall_1                    633309 17.1  182.542  201.835  182.542  201.835
 qs_ks_update_qs_env_forces          27  6.0    0.000    0.000  194.591  194.822
 make_m2s                         19746 14.8    0.708    0.832  184.260  186.039
 qs_ot_p2m_diag                     500 13.0    7.301    7.826  164.472  165.533
 cp_dbcsr_syevd                     558 13.7    0.038    0.061  139.342  140.002
 potential_pw2rs                    370 13.8    0.140    0.194  137.318  137.493
 init_scf_run                        28  7.0    0.001    0.002  134.797  134.802
 scf_env_initial_rho_setup           28  8.0    0.000    0.001  134.797  134.801
 multiply_cannon_metrocomm3      118476 15.8    0.307    0.351  116.319  134.112
 wfi_extrapolate                     28  9.0    0.004    0.006  130.881  130.882
 cp_gemm                            451 10.3    0.002    0.002  129.424  130.071
 cp_gemm_fm_gemm                    451 11.3    0.002    0.002  129.422  130.069
 cp_fm_gemm                         451 12.3  129.421  130.068  129.421  130.068
 make_images                      19746 15.8    3.464    3.572  127.822  129.759
 -------------------------------------------------------------------------------

 The number of warnings for this run is : 2
 
 -------------------------------------------------------------------------------
  **** **** ******  **  PROGRAM ENDED AT                 2022-07-05 20:53:35.471
 ***** ** ***  *** **   PROGRAM RAN ON             node0197.palmetto.clemson.edu
 **    ****   ******    PROGRAM RAN BY                                   xiutinc
 ***** **    ** ** **   PROGRAM PROCESS ID                                838282
  **** **  *******  **  PROGRAM STOPPED IN  /scratch1/xiutinc/CP2K-5305502.pbs02
