 DBCSR| CPU Multiplication driver                                           XSMM
 DBCSR| Multrec recursion limit                                              512
 DBCSR| Multiplication stack size                                           1000
 DBCSR| Maximum elements for images                                    UNLIMITED
 DBCSR| Multiplicative factor virtual images                                   1
 DBCSR| Use multiplication densification                                       T
 DBCSR| Multiplication size stacks                                             3
 DBCSR| Use memory pool for CPU allocation                                     F
 DBCSR| Number of 3D layers                                               SINGLE
 DBCSR| Use MPI memory allocation                                              F
 DBCSR| Use RMA algorithm                                                      F
 DBCSR| Use Communication thread                                               T
 DBCSR| Communication thread load                                             87
 DBCSR| MPI: My node id                                                        0
 DBCSR| MPI: Number of nodes                                                  24
 DBCSR| OMP: Current number of threads                                         1
 DBCSR| OMP: Max number of threads                                             1
 DBCSR| Split modifier for TAS multiplication algorithm                  1.0E+00


  **** **** ******  **  PROGRAM STARTED AT               2022-09-04 17:49:01.425
 ***** ** ***  *** **   PROGRAM STARTED ON         node1279.palmetto.clemson.edu
 **    ****   ******    PROGRAM STARTED BY                               xiutinc
 ***** **    ** ** **   PROGRAM PROCESS ID                               3735683
  **** **  *******  **  PROGRAM STARTED IN    /scratch1/xiutinc/CP2K-97006.pbs02

 CP2K| version string:                                          CP2K version 9.1
 CP2K| source code revision number:                                  git:d8d7100
 CP2K| cp2kflags: omp libint fftw3 libxc parallel mpi3 scalapack xsmm           
 CP2K| is freely available from                            https://www.cp2k.org/
 CP2K| Program compiled at                          Mon Aug  8 12:17:03 EDT 2022
 CP2K| Program compiled on                         node0352.palmetto.clemson.edu
 CP2K| Program compiled for                           linux-rocky8-ivybridge-gcc
 CP2K| Data directory path    /software/spackages/linux-rocky8-ivybridge/gcc-9.5
 CP2K| Input file name                                             intE08_aq.inp

 GLOBAL| Force Environment number                                              1
 GLOBAL| Basis set file name                                          BASIS_file
 GLOBAL| Potential file name                                     POTENTIALS_file
 GLOBAL| MM Potential file name                                     MM_POTENTIAL
 GLOBAL| Coordinate file name                                    ./intE08_aq.xyz
 GLOBAL| Method name                                                        CP2K
 GLOBAL| Project name                                                  intE08_aq
 GLOBAL| Run type                                                        GEO_OPT
 GLOBAL| FFT library                                                       FFTW3
 GLOBAL| Diagonalization library                                       ScaLAPACK
 GLOBAL| Orthonormality check for eigenvectors                          DISABLED
 GLOBAL| Matrix multiplication library                                 ScaLAPACK
 GLOBAL| All-to-all communication in single precision                          F
 GLOBAL| FFTs using library dependent lengths                                  F
 GLOBAL| Grid backend                                                       AUTO
 GLOBAL| Global print level                                                  LOW
 GLOBAL| MPI I/O enabled                                                       T
 GLOBAL| Total number of message passing processes                            24
 GLOBAL| Number of threads for this process                                    1
 GLOBAL| This output is from process                                           0
 GLOBAL| Stack size for threads created by OpenMP (OMP_STACKSIZE)        default
 GLOBAL| CPU model name                Intel(R) Xeon(R) CPU E5-2680 v3 @ 2.50GHz
 GLOBAL| CPUID                                                              1002
 GLOBAL| Compiled for CPUID                                                 1001

 *** HINT in environment.F:869 :: The compiler target flags (x86_avx) used ***
 *** to build this binary cannot exploit all extensions of this CPU model  ***
 *** (x86_avx2). Consider compiler target flags as part of FCFLAGS and     ***
 *** CFLAGS (ARCH file).                                                   ***


 MEMORY| system memory details [Kb]
 MEMORY|                        rank 0           min           max       average
 MEMORY| MemTotal            131294764     131294764     131294764     131294764
 MEMORY| MemFree             122458444     122458444     122458444     122458444
 MEMORY| Buffers                  3380          3380          3380          3380
 MEMORY| Cached                3237860       3237860       3237860       3237860
 MEMORY| Slab                   702092        702092        702092        702092
 MEMORY| SReclaimable           304244        304244        304244        304244
 MEMORY| MemLikelyFree       126003928     126003928     126003928     126003928


 *******************************************************************************
 *******************************************************************************
 **                                                                           **
 **     #####                         ##              ##                      **
 **    ##   ##            ##          ##              ##                      **
 **   ##     ##                       ##            ######                    **
 **   ##     ##  ##   ##  ##   #####  ##  ##   ####   ##    #####    #####    **
 **   ##     ##  ##   ##  ##  ##      ## ##   ##      ##   ##   ##  ##   ##   **
 **   ##  ## ##  ##   ##  ##  ##      ####     ###    ##   ######   ######    **
 **    ##  ###   ##   ##  ##  ##      ## ##      ##   ##   ##       ##        **
 **     #######   #####   ##   #####  ##  ##  ####    ##    #####   ##        **
 **           ##                                                    ##        **
 **                                                                           **
 **                                                ... make the atoms dance   **
 **                                                                           **
 **            Copyright (C) by CP2K developers group (2000-2021)             **
 **                      J. Chem. Phys. 152, 194103 (2020)                    **
 **                                                                           **
 *******************************************************************************


 TOTAL NUMBERS AND MAXIMUM NUMBERS

  Total number of            - Atomic kinds:                                   5
                             - Atoms:                                        658
                             - Shell sets:                                   658
                             - Shells:                                      3181
                             - Primitive Cartesian functions:               3101
                             - Cartesian basis functions:                   8725
                             - Spherical basis functions:                   8119

  Maximum angular momentum of- Orbital basis functions:                        3
                             - Local part of the GTH pseudopotential:          2
                             - Non-local part of the GTH pseudopotential:      3


 SCF PARAMETERS         Density guess:                                   RESTART
                        --------------------------------------------------------
                        max_scf:                                             500
                        max_scf_history:                                       0
                        max_diis:                                              4
                        --------------------------------------------------------
                        eps_scf:                                        1.00E-06
                        eps_scf_history:                                0.00E+00
                        eps_diis:                                       1.00E-01
                        eps_eigval:                                     1.00E-05
                        --------------------------------------------------------
                        level_shift [a.u.]:                                 0.00
                        --------------------------------------------------------
                        Outer loop SCF in use 
                        No variables optimised in outer loop
                        eps_scf                                         1.00E-06
                        max_scf                                               50
                        No outer loop optimization
                        step_size                                       5.00E-01

 BFGS| Use rational function optimization for step estimation:                NO
 BFGS| Use model Hessian for initial guess:                                  YES
 BFGS| Restart Hessian:                                                       NO
 BFGS| Trust radius:                                                       0.472

 *******************************************************************************
 ***                     STARTING GEOMETRY OPTIMIZATION                      ***
 ***                                   BFGS                                  ***
 *******************************************************************************

 Number of electrons:                                                       3288
 Number of occupied orbitals:                                               1644
 Number of molecular orbitals:                                              1644

 Number of orbital functions:                                               8119
 Number of independent orbital functions:                                   8119

 Extrapolation method: initial_guess

 *** WARNING in qs_initial_guess.F:309 :: User requested to restart the   ***
 *** wavefunction from the file named: intE08_aq-RESTART.wfn. This file   ***
 *** does not exist. Please check the existence of the file or change     ***
 *** properly the value of the keyword WFN_RESTART_FILE_NAME. Calculation ***
 *** continues using ATOMIC GUESS.                                        ***



 SCF WAVEFUNCTION OPTIMIZATION

  ----------------------------------- OT ---------------------------------------
  Minimizer      : CG                  : conjugate gradient
  Preconditioner : FULL_ALL            : diagonalization, state selective
  Precond_solver : DEFAULT
  Line search    : 2PNT                : 2 energies, one gradient
  stepsize       :    0.15000000                  energy_gap     :    0.00100000
  eps_taylor     :   0.10000E-15                  max_taylor     :             4
  ----------------------------------- OT ---------------------------------------

  Step     Update method      Time    Convergence         Total energy    Change
  ------------------------------------------------------------------------------
     1 OT CG       0.15E+00   40.9     0.01625359     -7196.9032289802 -7.20E+03
     2 OT LS       0.63E-01    4.5                    -7093.5614439035
     3 OT CG       0.63E-01   14.4     0.07377768     -7110.3277951677  8.66E+01
     4 OT LS       0.28E-01    4.6                    -6619.3341784614
     5 OT CG       0.28E-01   11.4     0.11588148     -6811.8247286525  2.99E+02
     6 OT LS       0.15E-01    4.5                    -6935.4408875892
     7 OT CG       0.15E-01   11.4     0.05988442     -7049.4329240843 -2.38E+02
     8 OT LS       0.89E-02    4.5                    -7149.9850193333
     9 OT CG       0.89E-02   11.4     0.01812085     -7185.3785820511 -1.36E+02
    10 OT LS       0.21E-01    4.5                    -7210.3413608497
    11 OT CG       0.21E-01   11.6     0.01795150     -7216.2649806689 -3.09E+01
    12 OT LS       0.26E-01    4.5                    -7253.0576527318
    13 OT CG       0.26E-01   11.4     0.01838149     -7254.3409000017 -3.81E+01
    14 OT LS       0.14E-01    4.5                    -7266.1873169537
    15 OT CG       0.14E-01   11.4     0.01105626     -7280.5334118350 -2.62E+01
    16 OT LS       0.57E-01    4.5                    -7298.6391010583
    17 OT CG       0.57E-01   11.4     0.02256908     -7297.8836980481 -1.74E+01
    18 OT LS       0.27E-01    4.5                    -7271.4204913056
    19 OT CG       0.27E-01   11.4     0.02275767     -7280.9274565211  1.70E+01
    20 OT LS       0.69E-02    4.5                    -7210.5360119317
    21 OT CG       0.69E-02   11.4     0.01444483     -7303.3458382033 -2.24E+01
    22 OT LS       0.13E-01    4.5                    -7317.2964754358
    23 OT CG       0.13E-01   11.4     0.00888169     -7320.0838852746 -1.67E+01
    24 OT LS       0.50E-01    4.5                    -7330.6518565871
    25 OT CG       0.50E-01   11.4     0.01396441     -7336.2906490362 -1.62E+01
    26 OT LS       0.42E-02    4.5                    -7085.2111001932
    27 OT CG       0.42E-02   11.4     0.01358800     -7338.9184742185 -2.63E+00
    28 OT LS       0.11E-01    4.5                    -7347.2458700642
    29 OT CG       0.11E-01   11.4     0.00377035     -7353.1683079778 -1.42E+01
    30 OT LS       0.43E-01    4.5                    -7355.0597755597
    31 OT CG       0.43E-01   11.4     0.00292547     -7359.2084678622 -6.04E+00
    32 OT LS       0.65E-01    4.5                    -7362.7571563627
    33 OT CG       0.65E-01   11.4     0.00553298     -7362.9571367560 -3.75E+00
    34 OT LS       0.22E-01    4.6                    -7352.7589893386
    35 OT CG       0.22E-01   11.4     0.00662572     -7367.3048706623 -4.35E+00
    36 OT LS       0.16E-01    4.5                    -7371.6500823714
    37 OT CG       0.16E-01   12.1     0.00220130     -7372.0199319410 -4.72E+00
    38 OT LS       0.66E-01    5.3                    -7373.0379787295
    39 OT CG       0.66E-01   12.8     0.00177609     -7375.1703774470 -3.15E+00
    40 OT LS       0.12E+00    4.5                    -7377.6328478279
    41 OT CG       0.12E+00   11.5     0.00308199     -7378.1742637304 -3.00E+00
    42 OT LS       0.57E-01    4.5                    -7377.4729933790
    43 OT CG       0.57E-01   11.4     0.00309465     -7381.6212002433 -3.45E+00
    44 OT LS       0.48E-01    4.5                    -7384.5650880753
    45 OT CG       0.48E-01   11.4     0.00204618     -7384.6410109957 -3.02E+00
    46 OT LS       0.89E-01    4.5                    -7386.6345453440
    47 OT CG       0.89E-01   11.4     0.00286379     -7386.9664327111 -2.33E+00
    48 OT LS       0.40E-01    4.5                    -7386.0622429219
    49 OT CG       0.40E-01   11.4     0.00228474     -7388.5030096870 -1.54E+00
    50 OT LS       0.56E-01    4.5                    -7390.2589636192
    51 OT CG       0.56E-01   11.4     0.00203672     -7390.5051300706 -2.00E+00
    52 OT LS       0.53E-01    4.5                    -7392.0983174780
    53 OT CG       0.53E-01   11.4     0.00200057     -7392.1158737952 -1.61E+00
    54 OT LS       0.48E-01    4.5                    -7393.3289216482
    55 OT CG       0.48E-01   11.4     0.00192101     -7393.3357705418 -1.22E+00
    56 OT LS       0.53E-01    4.5                    -7394.6328931451
    57 OT CG       0.53E-01   11.5     0.00193758     -7394.6542347363 -1.32E+00
    58 OT LS       0.79E-01    4.5                    -7396.5441256343
    59 OT CG       0.79E-01   11.4     0.00247843     -7396.6577064375 -2.00E+00
    60 OT LS       0.45E-01    4.5                    -7397.2317910505
    61 OT CG       0.45E-01   11.4     0.00269675     -7398.2015647100 -1.54E+00
    62 OT LS       0.38E-01    4.5                    -7400.0320885576
    63 OT CG       0.38E-01   11.4     0.00177434     -7400.0346307819 -1.83E+00
    64 OT LS       0.81E-01    4.5                    -7401.3347696059
    65 OT CG       0.81E-01   11.4     0.00131164     -7401.7641647600 -1.73E+00
    66 OT LS       0.11E+00    4.5                    -7402.7987543325
    67 OT CG       0.11E+00   11.4     0.00177953     -7402.8707401147 -1.11E+00
    68 OT LS       0.10E+00    4.5                    -7405.0426952335
    69 OT CG       0.10E+00   11.4     0.00176030     -7405.0426859536 -2.17E+00
    70 OT LS       0.74E-01    4.5                    -7406.3769341774
    71 OT CG       0.74E-01   11.4     0.00165637     -7406.6867633891 -1.64E+00
    72 OT LS       0.77E-01    4.7                    -7408.0727986284
    73 OT CG       0.77E-01   11.4     0.00144198     -7408.0772106483 -1.39E+00
    74 OT LS       0.81E-01    4.5                    -7409.2116043274
    75 OT CG       0.81E-01   11.4     0.00128270     -7409.2155998863 -1.14E+00
    76 OT LS       0.88E-01    4.5                    -7410.1846617031
    77 OT CG       0.88E-01   11.6     0.00126622     -7410.1895103526 -9.74E-01
    78 OT LS       0.95E-01    6.7                    -7411.1910191707
    79 OT CG       0.95E-01   11.4     0.00135892     -7411.1990797748 -1.01E+00
    80 OT LS       0.81E-01    4.5                    -7412.1748971139
    81 OT CG       0.81E-01   11.4     0.00123184     -7412.2077208882 -1.01E+00
    82 OT LS       0.94E-01    4.5                    -7413.1435366993
    83 OT CG       0.94E-01   11.4     0.00126785     -7413.1529839871 -9.45E-01
    84 OT LS       0.77E-01    4.5                    -7413.9093246166
    85 OT CG       0.77E-01   11.4     0.00121629     -7413.9443241315 -7.91E-01
    86 OT LS       0.86E-01    4.5                    -7414.7926553424
    87 OT CG       0.86E-01   11.5     0.00105395     -7414.8064841972 -8.62E-01
    88 OT LS       0.92E-01    4.5                    -7415.5090984344
    89 OT CG       0.92E-01   11.4     0.00107353     -7415.5103739514 -7.04E-01
    90 OT LS       0.90E-01    4.5                    -7416.1873985958
    91 OT CG       0.90E-01   11.4     0.00113054     -7416.1882295330 -6.78E-01
    92 OT LS       0.81E-01    4.5                    -7416.8627446453
    93 OT CG       0.81E-01   11.4     0.00102159     -7416.8693224999 -6.81E-01
    94 OT LS       0.88E-01    4.5                    -7417.4832167198
    95 OT CG       0.88E-01   11.4     0.00097570     -7417.4866055966 -6.17E-01
    96 OT LS       0.89E-01    4.5                    -7418.0475478141
    97 OT CG       0.89E-01   11.4     0.00099605     -7418.0474875733 -5.61E-01
    98 OT LS       0.91E-01    4.5                    -7418.6418191367
    99 OT CG       0.91E-01   11.4     0.00095028     -7418.6422733300 -5.95E-01
   100 OT LS       0.84E-01    4.5                    -7419.1489594733
   101 OT CG       0.84E-01   11.4     0.00087589     -7419.1515936116 -5.09E-01
   102 OT LS       0.92E-01    4.7                    -7419.6208043839
   103 OT CG       0.92E-01   11.4     0.00086187     -7419.6234595395 -4.72E-01
   104 OT LS       0.90E-01    4.5                    -7420.0635130804
   105 OT CG       0.90E-01   11.4     0.00088149     -7420.0638600039 -4.40E-01
   106 OT LS       0.88E-01    4.5                    -7420.5171783419
   107 OT CG       0.88E-01   11.4     0.00080165     -7420.5172748396 -4.53E-01
   108 OT LS       0.91E-01    4.5                    -7420.9088310342
   109 OT CG       0.91E-01   11.4     0.00079069     -7420.9093431040 -3.92E-01
   110 OT LS       0.86E-01    4.5                    -7421.2694380332
   111 OT CG       0.86E-01   11.4     0.00076820     -7421.2706619072 -3.61E-01
   112 OT LS       0.92E-01    5.6                    -7421.6281042039
   113 OT CG       0.92E-01   13.3     0.00076197     -7421.6291321767 -3.58E-01
   114 OT LS       0.87E-01    4.5                    -7421.9655649198
   115 OT CG       0.87E-01   11.4     0.00071742     -7421.9662306068 -3.37E-01
   116 OT LS       0.92E-01    4.5                    -7422.2811450373
   117 OT CG       0.92E-01   11.4     0.00070156     -7422.2818700575 -3.16E-01
   118 OT LS       0.90E-01    4.5                    -7422.5779489082
   119 OT CG       0.90E-01   11.4     0.00069259     -7422.5780821222 -2.96E-01
   120 OT LS       0.90E-01    4.5                    -7422.8653462949
   121 OT CG       0.90E-01   11.4     0.00067261     -7422.8653434845 -2.87E-01
   122 OT LS       0.89E-01    4.6                    -7423.1339284923
   123 OT CG       0.89E-01   11.4     0.00064492     -7423.1339393373 -2.69E-01
   124 OT LS       0.89E-01    4.5                    -7423.3814376491
   125 OT CG       0.89E-01   11.4     0.00062285     -7423.3814365403 -2.47E-01
   126 OT LS       0.91E-01    4.5                    -7423.6177896157
   127 OT CG       0.91E-01   11.4     0.00061007     -7423.6178996187 -2.36E-01
   128 OT LS       0.91E-01    4.5                    -7423.8434476169
   129 OT CG       0.91E-01   11.4     0.00059667     -7423.8434486335 -2.26E-01
   130 OT LS       0.90E-01    4.5                    -7424.0565844630
   131 OT CG       0.90E-01   11.3     0.00057199     -7424.0566080201 -2.13E-01
   132 OT LS       0.91E-01    4.5                    -7424.2548411024
   133 OT CG       0.91E-01   11.4     0.00055472     -7424.2548596095 -1.98E-01
   134 OT LS       0.91E-01    4.5                    -7424.4426858237
   135 OT CG       0.91E-01   11.4     0.00054039     -7424.4426910041 -1.88E-01
   136 OT LS       0.93E-01    4.5                    -7424.6237250030
   137 OT CG       0.93E-01   11.4     0.00053107     -7424.6237733830 -1.81E-01
   138 OT LS       0.91E-01    4.6                    -7424.7937024223
   139 OT CG       0.91E-01   11.4     0.00051246     -7424.7938268837 -1.70E-01
   140 OT LS       0.90E-01    4.5                    -7424.9523213823
   141 OT CG       0.90E-01   11.4     0.00049543     -7424.9523209586 -1.58E-01
   142 OT LS       0.91E-01    4.5                    -7425.1023856951
   143 OT CG       0.91E-01   11.4     0.00048394     -7425.1024063324 -1.50E-01
   144 OT LS       0.93E-01    4.5                    -7425.2479947713
   145 OT CG       0.93E-01   11.4     0.00047533     -7425.2480363815 -1.46E-01
   146 OT LS       0.91E-01    4.5                    -7425.3847649316
   147 OT CG       0.91E-01   11.5     0.00046197     -7425.3848578147 -1.37E-01
   148 OT LS       0.90E-01    4.5                    -7425.5135732630
   149 OT CG       0.90E-01   11.4     0.00044629     -7425.5135752880 -1.29E-01
   150 OT LS       0.92E-01    4.5                    -7425.6364636055
   151 OT CG       0.92E-01   11.4     0.00043557     -7425.6365252468 -1.23E-01
   152 OT LS       0.94E-01    4.7                    -7425.7549968785
   153 OT CG       0.94E-01   12.8     0.00042922     -7425.7550124948 -1.18E-01
   154 OT LS       0.91E-01    4.6                    -7425.8670105607
   155 OT CG       0.91E-01   11.4     0.00041735     -7425.8670881133 -1.12E-01
   156 OT LS       0.91E-01    4.5                    -7425.9732525000
   157 OT CG       0.91E-01   11.4     0.00040529     -7425.9732529825 -1.06E-01
   158 OT LS       0.93E-01    4.5                    -7426.0747701220
   159 OT CG       0.93E-01   11.4     0.00039573     -7426.0747894997 -1.02E-01
   160 OT LS       0.93E-01    4.5                    -7426.1722066884
   161 OT CG       0.93E-01   11.4     0.00038951     -7426.1722106753 -9.74E-02
   162 OT LS       0.92E-01    4.5                    -7426.2653943098
   163 OT CG       0.92E-01   11.5     0.00037936     -7426.2654092508 -9.32E-02
   164 OT LS       0.92E-01    4.5                    -7426.3540875270
   165 OT CG       0.92E-01   11.4     0.00036914     -7426.3540884533 -8.87E-02
   166 OT LS       0.93E-01    4.5                    -7426.4390706344
   167 OT CG       0.93E-01   11.4     0.00036142     -7426.4390829182 -8.50E-02
   168 OT LS       0.94E-01    4.5                    -7426.5206732088
   169 OT CG       0.94E-01   11.4     0.00035550     -7426.5206733945 -8.16E-02
   170 OT LS       0.93E-01    4.5                    -7426.5994494584
   171 OT CG       0.93E-01   11.4     0.00034835     -7426.5994497576 -7.88E-02
   172 OT LS       0.93E-01    4.5                    -7426.6748661463
   173 OT CG       0.93E-01   11.4     0.00034011     -7426.6748668698 -7.54E-02
   174 OT LS       0.94E-01    4.5                    -7426.7476890040
   175 OT CG       0.94E-01   11.4     0.00033411     -7426.7477008266 -7.28E-02
   176 OT LS       0.94E-01    4.5                    -7426.8175417817
   177 OT CG       0.94E-01   11.5     0.00032877     -7426.8175445161 -6.98E-02
   178 OT LS       0.94E-01    4.6                    -7426.8850797478
   179 OT CG       0.94E-01   11.4     0.00032262     -7426.8850798379 -6.75E-02
   180 OT LS       0.94E-01    4.5                    -7426.9502702682
   181 OT CG       0.94E-01   11.4     0.00031534     -7426.9502705921 -6.52E-02
   182 OT LS       0.95E-01    4.5                    -7427.0130723777
   183 OT CG       0.95E-01   11.4     0.00031004     -7427.0130764803 -6.28E-02
   184 OT LS       0.94E-01    4.5                    -7427.0736466108
   185 OT CG       0.94E-01   11.4     0.00030540     -7427.0736469442 -6.06E-02
   186 OT LS       0.94E-01    4.5                    -7427.1322042746
   187 OT CG       0.94E-01   15.0     0.00030044     -7427.1322049204 -5.86E-02
   188 OT LS       0.94E-01    4.5                    -7427.1888152212
   189 OT CG       0.94E-01   11.4     0.00029450     -7427.1888152797 -5.66E-02
   190 OT LS       0.95E-01    4.5                    -7427.2435712851
   191 OT CG       0.95E-01   11.4     0.00029057     -7427.2435733958 -5.48E-02
   192 OT LS       0.94E-01    4.5                    -7427.2964450957
   193 OT CG       0.94E-01   11.4     0.00028643     -7427.2964488212 -5.29E-02
   194 OT LS       0.94E-01    4.5                    -7427.3477512863
   195 OT CG       0.94E-01   11.4     0.00028217     -7427.3477513528 -5.13E-02
   196 OT LS       0.94E-01    4.5                    -7427.3974475151
   197 OT CG       0.94E-01   11.4     0.00027641     -7427.3974476483 -4.97E-02
   198 OT LS       0.94E-01    4.5                    -7427.4456189540
   199 OT CG       0.94E-01   11.4     0.00027200     -7427.4456235438 -4.82E-02
   200 OT LS       0.94E-01    4.5                    -7427.4922151438
   201 OT CG       0.94E-01   11.4     0.00026753     -7427.4922152597 -4.66E-02
   202 OT LS       0.94E-01    4.5                    -7427.5372782904
   203 OT CG       0.94E-01   11.4     0.00026330     -7427.5372782751 -4.51E-02
   204 OT LS       0.94E-01    4.5                    -7427.5809595178
   205 OT CG       0.94E-01   11.4     0.00025851     -7427.5809595669 -4.37E-02
   206 OT LS       0.95E-01    4.5                    -7427.6231579566
   207 OT CG       0.95E-01   11.7     0.00025512     -7427.6231581161 -4.22E-02
   208 OT LS       0.94E-01    4.5                    -7427.6641985668
   209 OT CG       0.94E-01   11.4     0.00025086     -7427.6641987130 -4.10E-02
   210 OT LS       0.94E-01    4.5                    -7427.7038865171
   211 OT CG       0.94E-01   11.4     0.00024687     -7427.7038865006 -3.97E-02
   212 OT LS       0.95E-01    4.5                    -7427.7424942359
   213 OT CG       0.95E-01   11.4     0.00024254     -7427.7424951714 -3.86E-02
   214 OT LS       0.95E-01    4.5                    -7427.7796187235
   215 OT CG       0.95E-01   11.4     0.00023820     -7427.7796192286 -3.71E-02
   216 OT LS       0.95E-01    4.5                    -7427.8156452868
   217 OT CG       0.95E-01   11.4     0.00023398     -7427.8156464550 -3.60E-02
   218 OT LS       0.95E-01    4.5                    -7427.8505323710
   219 OT CG       0.95E-01   11.4     0.00023012     -7427.8505327496 -3.49E-02
   220 OT LS       0.95E-01    4.5                    -7427.8842432329
   221 OT CG       0.95E-01   11.4     0.00022670     -7427.8842432432 -3.37E-02
   222 OT LS       0.95E-01    4.5                    -7427.9168318571
   223 OT CG       0.95E-01   11.5     0.00022312     -7427.9168322532 -3.26E-02
   224 OT LS       0.95E-01    4.5                    -7427.9484423160
   225 OT CG       0.95E-01   11.4     0.00021923     -7427.9484423412 -3.16E-02
   226 OT LS       0.96E-01    4.5                    -7427.9791632651
   227 OT CG       0.96E-01   13.1     0.00021626     -7427.9791645052 -3.07E-02
   228 OT LS       0.95E-01    4.5                    -7428.0089186799
   229 OT CG       0.95E-01   11.4     0.00021311     -7428.0089193192 -2.98E-02
   230 OT LS       0.95E-01    4.5                    -7428.0377133990
   231 OT CG       0.95E-01   11.4     0.00020983     -7428.0377136831 -2.88E-02
   232 OT LS       0.95E-01    4.5                    -7428.0656575881
   233 OT CG       0.95E-01   11.4     0.00020633     -7428.0656576128 -2.79E-02
   234 OT LS       0.95E-01    4.5                    -7428.0927872059
   235 OT CG       0.95E-01   11.4     0.00020374     -7428.0927875757 -2.71E-02
   236 OT LS       0.95E-01    4.5                    -7428.1191180301
   237 OT CG       0.95E-01   11.4     0.00020071     -7428.1191186218 -2.63E-02
   238 OT LS       0.95E-01    4.7                    -7428.1446696268
   239 OT CG       0.95E-01   11.4     0.00019786     -7428.1446696252 -2.56E-02
   240 OT LS       0.95E-01    4.5                    -7428.1695626095
   241 OT CG       0.95E-01   11.3     0.00019473     -7428.1695627859 -2.49E-02
   242 OT LS       0.96E-01    4.5                    -7428.1938126238
   243 OT CG       0.96E-01   11.4     0.00019229     -7428.1938133482 -2.43E-02
   244 OT LS       0.96E-01    4.5                    -7428.2174387554
   245 OT CG       0.96E-01   11.4     0.00019008     -7428.2174387884 -2.36E-02
   246 OT LS       0.95E-01    4.5                    -7428.2403276819
   247 OT CG       0.95E-01   11.4     0.00018745     -7428.2403292906 -2.29E-02
   248 OT LS       0.95E-01    4.5                    -7428.2626833491
   249 OT CG       0.95E-01   11.4     0.00018444     -7428.2626837826 -2.24E-02
   250 OT LS       0.96E-01    4.5                    -7428.2844922425
   251 OT CG       0.96E-01   11.4     0.00018192     -7428.2844935108 -2.18E-02
   252 OT LS       0.96E-01    4.5                    -7428.3057521489
   253 OT CG       0.96E-01   11.5     0.00018002     -7428.3057522043 -2.13E-02
   254 OT LS       0.96E-01    4.5                    -7428.3264340319
   255 OT CG       0.96E-01   11.4     0.00017769     -7428.3264348972 -2.07E-02
   256 OT LS       0.96E-01    4.5                    -7428.3466317874
   257 OT CG       0.96E-01   11.4     0.00017557     -7428.3466319169 -2.02E-02
   258 OT LS       0.96E-01    4.5                    -7428.3663764522
   259 OT CG       0.96E-01   11.4     0.00017327     -7428.3663764845 -1.97E-02
   260 OT LS       0.96E-01    4.5                    -7428.3856854402
   261 OT CG       0.96E-01   14.2     0.00017138     -7428.3856857226 -1.93E-02
   262 OT LS       0.96E-01    5.3                    -7428.4045694326
   263 OT CG       0.96E-01   11.4     0.00016953     -7428.4045694362 -1.89E-02
   264 OT LS       0.96E-01    4.5                    -7428.4229493948
   265 OT CG       0.96E-01   11.4     0.00016718     -7428.4229498718 -1.84E-02
   266 OT LS       0.96E-01    4.5                    -7428.4409398483
   267 OT CG       0.96E-01   11.4     0.00016522     -7428.4409406171 -1.80E-02
   268 OT LS       0.96E-01    4.7                    -7428.4584827387
   269 OT CG       0.96E-01   11.4     0.00016358     -7428.4584827957 -1.75E-02
   270 OT LS       0.96E-01    4.5                    -7428.4755898178
   271 OT CG       0.96E-01   11.4     0.00016201     -7428.4755903144 -1.71E-02
   272 OT LS       0.96E-01    4.5                    -7428.4923487728
   273 OT CG       0.96E-01   11.4     0.00015987     -7428.4923487947 -1.68E-02
   274 OT LS       0.96E-01    4.5                    -7428.5087227547
   275 OT CG       0.96E-01   11.4     0.00015811     -7428.5087229544 -1.64E-02
   276 OT LS       0.96E-01    4.5                    -7428.5247632525
   277 OT CG       0.96E-01   11.4     0.00015618     -7428.5247632830 -1.60E-02
   278 OT LS       0.96E-01    4.5                    -7428.5403775578
   279 OT CG       0.96E-01   11.4     0.00015430     -7428.5403776575 -1.56E-02
   280 OT LS       0.96E-01    4.5                    -7428.5556957483
   281 OT CG       0.96E-01   11.4     0.00015249     -7428.5556961500 -1.53E-02
   282 OT LS       0.96E-01    4.5                    -7428.5705876756
   283 OT CG       0.96E-01   11.6     0.00015066     -7428.5705879812 -1.49E-02
   284 OT LS       0.96E-01    4.5                    -7428.5851411358
   285 OT CG       0.96E-01   11.4     0.00014880     -7428.5851411525 -1.46E-02
   286 OT LS       0.96E-01    4.5                    -7428.5993799131
   287 OT CG       0.96E-01   11.4     0.00014724     -7428.5993800293 -1.42E-02
   288 OT LS       0.96E-01    4.5                    -7428.6133030484
   289 OT CG       0.96E-01   11.4     0.00014553     -7428.6133030745 -1.39E-02
   290 OT LS       0.96E-01    4.5                    -7428.6269083533
   291 OT CG       0.96E-01   11.4     0.00014379     -7428.6269083540 -1.36E-02
   292 OT LS       0.96E-01    4.5                    -7428.6402113459
   293 OT CG       0.96E-01   11.4     0.00014215     -7428.6402113837 -1.33E-02
   294 OT LS       0.96E-01    4.5                    -7428.6531965579
   295 OT CG       0.96E-01   11.4     0.00014047     -7428.6531965807 -1.30E-02
   296 OT LS       0.97E-01    4.5                    -7428.6659541968
   297 OT CG       0.97E-01   11.4     0.00013871     -7428.6659546554 -1.28E-02
   298 OT LS       0.97E-01    4.5                    -7428.6784101334
   299 OT CG       0.97E-01   11.5     0.00013732     -7428.6784101527 -1.25E-02
   300 OT LS       0.96E-01    4.5                    -7428.6905361824
   301 OT CG       0.96E-01   14.6     0.00013601     -7428.6905367037 -1.21E-02
   302 OT LS       0.96E-01    4.5                    -7428.7023970182
   303 OT CG       0.96E-01   11.4     0.00013436     -7428.7023971251 -1.19E-02
   304 OT LS       0.97E-01    4.5                    -7428.7140513207
   305 OT CG       0.97E-01   11.4     0.00013311     -7428.7140518568 -1.17E-02
   306 OT LS       0.96E-01    4.5                    -7428.7254588025
   307 OT CG       0.96E-01   11.4     0.00013160     -7428.7254589034 -1.14E-02
   308 OT LS       0.97E-01    4.5                    -7428.7366287995
   309 OT CG       0.97E-01   11.4     0.00013035     -7428.7366288372 -1.12E-02
   310 OT LS       0.97E-01    4.5                    -7428.7475701476
   311 OT CG       0.97E-01   11.4     0.00012887     -7428.7475701715 -1.09E-02
   312 OT LS       0.97E-01    4.5                    -7428.7582911577
   313 OT CG       0.97E-01   11.6     0.00012771     -7428.7582912242 -1.07E-02
   314 OT LS       0.96E-01    4.5                    -7428.7687694647
   315 OT CG       0.96E-01   11.4     0.00012639     -7428.7687697240 -1.05E-02
   316 OT LS       0.96E-01    4.5                    -7428.7790306243
   317 OT CG       0.96E-01   11.4     0.00012520     -7428.7790306244 -1.03E-02
   318 OT LS       0.96E-01    4.5                    -7428.7891012821
   319 OT CG       0.96E-01   11.3     0.00012380     -7428.7891012831 -1.01E-02
   320 OT LS       0.96E-01    4.5                    -7428.7989502890
   321 OT CG       0.96E-01   11.4     0.00012255     -7428.7989502892 -9.85E-03
   322 OT LS       0.96E-01    4.5                    -7428.8086179311
   323 OT CG       0.96E-01   11.4     0.00012126     -7428.8086179559 -9.67E-03
   324 OT LS       0.97E-01    4.5                    -7428.8180961195
   325 OT CG       0.97E-01   11.4     0.00011998     -7428.8180961341 -9.48E-03
   326 OT LS       0.97E-01    4.5                    -7428.8273808260
   327 OT CG       0.97E-01   11.4     0.00011867     -7428.8273808297 -9.28E-03
   328 OT LS       0.97E-01    4.5                    -7428.8364757111
   329 OT CG       0.97E-01   11.5     0.00011745     -7428.8364757309 -9.09E-03
   330 OT LS       0.97E-01    4.5                    -7428.8453885167
   331 OT CG       0.97E-01   11.4     0.00011630     -7428.8453885174 -8.91E-03
   332 OT LS       0.97E-01    4.5                    -7428.8541146289
   333 OT CG       0.97E-01   11.4     0.00011519     -7428.8541146519 -8.73E-03
   334 OT LS       0.96E-01    4.5                    -7428.8626543280
   335 OT CG       0.96E-01   12.8     0.00011382     -7428.8626543767 -8.54E-03
   336 OT LS       0.97E-01    6.2                    -7428.8710389178
   337 OT CG       0.97E-01   11.7     0.00011256     -7428.8710391932 -8.38E-03
   338 OT LS       0.97E-01    4.5                    -7428.8792655217
   339 OT CG       0.97E-01   11.4     0.00011160     -7428.8792656001 -8.23E-03
   340 OT LS       0.97E-01    4.5                    -7428.8873119708
   341 OT CG       0.97E-01   11.3     0.00011058     -7428.8873121814 -8.05E-03
   342 OT LS       0.97E-01    4.5                    -7428.8952264901
   343 OT CG       0.97E-01   11.5     0.00010961     -7428.8952265199 -7.91E-03
   344 OT LS       0.97E-01    4.5                    -7428.9029720187
   345 OT CG       0.97E-01   11.4     0.00010858     -7428.9029721386 -7.75E-03
   346 OT LS       0.97E-01    4.5                    -7428.9105959202
   347 OT CG       0.97E-01   11.4     0.00010760     -7428.9105959819 -7.62E-03
   348 OT LS       0.97E-01    4.5                    -7428.9180821259
   349 OT CG       0.97E-01   11.4     0.00010666     -7428.9180821262 -7.49E-03
   350 OT LS       0.97E-01    4.5                    -7428.9254220264
   351 OT CG       0.97E-01   11.4     0.00010562     -7428.9254220542 -7.34E-03
   352 OT LS       0.97E-01    4.5                    -7428.9326370002
   353 OT CG       0.97E-01   11.4     0.00010453     -7428.9326370439 -7.21E-03
   354 OT LS       0.97E-01    4.5                    -7428.9397022027
   355 OT CG       0.97E-01   11.4     0.00010370     -7428.9397022037 -7.07E-03
   356 OT LS       0.96E-01    4.5                    -7428.9466234078
   357 OT CG       0.96E-01   11.4     0.00010276     -7428.9466235646 -6.92E-03
   358 OT LS       0.97E-01    4.5                    -7428.9534274706
   359 OT CG       0.97E-01   11.4     0.00010184     -7428.9534274790 -6.80E-03
   360 OT LS       0.96E-01    4.5                    -7428.9600937325
   361 OT CG       0.96E-01   11.4     0.00010101     -7428.9600937679 -6.67E-03
   362 OT LS       0.96E-01    4.5                    -7428.9666507295
   363 OT CG       0.96E-01   11.4     0.00010003     -7428.9666507302 -6.56E-03
   364 OT LS       0.97E-01    4.5                    -7428.9731074759
   365 OT CG       0.97E-01   11.4     0.00009916     -7428.9731075794 -6.46E-03
   366 OT LS       0.97E-01    4.5                    -7428.9794685507
   367 OT CG       0.97E-01   11.4     0.00009834     -7428.9794685906 -6.36E-03
   368 OT LS       0.97E-01    4.5                    -7428.9857279261
   369 OT CG       0.97E-01   11.4     0.00009744     -7428.9857279286 -6.26E-03
   370 OT LS       0.97E-01    4.5                    -7428.9918877243
   371 OT CG       0.97E-01   11.4     0.00009674     -7428.9918877537 -6.16E-03
   372 OT LS       0.97E-01    4.5                    -7428.9979428988
   373 OT CG       0.97E-01   11.6     0.00009595     -7428.9979429467 -6.06E-03
   374 OT LS       0.97E-01    4.5                    -7429.0039058207
   375 OT CG       0.97E-01   11.9     0.00009529     -7429.0039058274 -5.96E-03
   376 OT LS       0.97E-01    5.7                    -7429.0097687704
   377 OT CG       0.97E-01   11.4     0.00009435     -7429.0097688273 -5.86E-03
   378 OT LS       0.97E-01    4.5                    -7429.0155511733
   379 OT CG       0.97E-01   11.4     0.00009362     -7429.0155513838 -5.78E-03
   380 OT LS       0.97E-01    4.5                    -7429.0212423487
   381 OT CG       0.97E-01   11.4     0.00009293     -7429.0212423518 -5.69E-03
   382 OT LS       0.97E-01    4.5                    -7429.0268381086
   383 OT CG       0.97E-01   11.4     0.00009224     -7429.0268381311 -5.60E-03
   384 OT LS       0.97E-01    4.5                    -7429.0323410444
   385 OT CG       0.97E-01   11.4     0.00009147     -7429.0323410575 -5.50E-03
   386 OT LS       0.97E-01    4.5                    -7429.0377544761
   387 OT CG       0.97E-01   11.4     0.00009067     -7429.0377544762 -5.41E-03
   388 OT LS       0.97E-01    4.5                    -7429.0430909220
   389 OT CG       0.97E-01   11.5     0.00009001     -7429.0430909719 -5.34E-03
   390 OT LS       0.97E-01    4.5                    -7429.0483297592
   391 OT CG       0.97E-01   11.4     0.00008929     -7429.0483298374 -5.24E-03
   392 OT LS       0.97E-01    4.5                    -7429.0534730255
   393 OT CG       0.97E-01   11.4     0.00008854     -7429.0534730535 -5.14E-03
   394 OT LS       0.97E-01    4.5                    -7429.0585380707
   395 OT CG       0.97E-01   11.4     0.00008769     -7429.0585380836 -5.07E-03
   396 OT LS       0.97E-01    4.5                    -7429.0635134128
   397 OT CG       0.97E-01   11.4     0.00008701     -7429.0635134200 -4.98E-03
   398 OT LS       0.97E-01    4.5                    -7429.0684101388
   399 OT CG       0.97E-01   11.4     0.00008638     -7429.0684101392 -4.90E-03
   400 OT LS       0.96E-01    4.5                    -7429.0732078950
   401 OT CG       0.96E-01   11.3     0.00008569     -7429.0732080638 -4.80E-03
   402 OT LS       0.97E-01    4.5                    -7429.0779411288
   403 OT CG       0.97E-01   11.4     0.00008489     -7429.0779411610 -4.73E-03
   404 OT LS       0.97E-01    4.8                    -7429.0825985733
   405 OT CG       0.97E-01   11.4     0.00008418     -7429.0825986015 -4.66E-03
   406 OT LS       0.97E-01    4.5                    -7429.0871771888
   407 OT CG       0.97E-01   11.4     0.00008352     -7429.0871771891 -4.58E-03
   408 OT LS       0.97E-01    4.5                    -7429.0916698253
   409 OT CG       0.97E-01   12.2     0.00008270     -7429.0916698678 -4.49E-03
   410 OT LS       0.97E-01    5.8                    -7429.0960908891
   411 OT CG       0.97E-01   13.1     0.00008205     -7429.0960909480 -4.42E-03
   412 OT LS       0.97E-01    4.5                    -7429.1004356837
   413 OT CG       0.97E-01   11.4     0.00008138     -7429.1004356959 -4.34E-03
   414 OT LS       0.97E-01    4.5                    -7429.1047159627
   415 OT CG       0.97E-01   11.4     0.00008063     -7429.1047159704 -4.28E-03
   416 OT LS       0.98E-01    4.5                    -7429.1089521441
   417 OT CG       0.98E-01   11.4     0.00007998     -7429.1089524291 -4.24E-03
   418 OT LS       0.97E-01    4.5                    -7429.1131111100
   419 OT CG       0.97E-01   11.5     0.00007928     -7429.1131111306 -4.16E-03
   420 OT LS       0.97E-01    4.5                    -7429.1171932207
   421 OT CG       0.97E-01   11.4     0.00007871     -7429.1171932260 -4.08E-03
   422 OT LS       0.97E-01    4.5                    -7429.1212019597
   423 OT CG       0.97E-01   11.4     0.00007815     -7429.1212020188 -4.01E-03
   424 OT LS       0.96E-01    4.5                    -7429.1251352889
   425 OT CG       0.96E-01   11.4     0.00007751     -7429.1251353783 -3.93E-03
   426 OT LS       0.97E-01    4.5                    -7429.1290056011
   427 OT CG       0.97E-01   11.4     0.00007689     -7429.1290056022 -3.87E-03
   428 OT LS       0.97E-01    4.5                    -7429.1328281476
   429 OT CG       0.97E-01   11.4     0.00007627     -7429.1328281940 -3.82E-03
   430 OT LS       0.97E-01    4.5                    -7429.1366034429
   431 OT CG       0.97E-01   11.4     0.00007580     -7429.1366034922 -3.78E-03
   432 OT LS       0.97E-01    4.5                    -7429.1403295066
   433 OT CG       0.97E-01   11.4     0.00007530     -7429.1403295083 -3.73E-03
   434 OT LS       0.97E-01    4.6                    -7429.1440104998
   435 OT CG       0.97E-01   11.4     0.00007482     -7429.1440105041 -3.68E-03
   436 OT LS       0.97E-01    4.5                    -7429.1476432542
   437 OT CG       0.97E-01   11.4     0.00007423     -7429.1476432546 -3.63E-03
   438 OT LS       0.97E-01    4.5                    -7429.1512184063
   439 OT CG       0.97E-01   11.4     0.00007386     -7429.1512184071 -3.58E-03
   440 OT LS       0.97E-01    4.5                    -7429.1547322770
   441 OT CG       0.97E-01   11.3     0.00007352     -7429.1547324558 -3.51E-03
   442 OT LS       0.96E-01    4.5                    -7429.1582014021
   443 OT CG       0.96E-01   11.4     0.00007295     -7429.1582014472 -3.47E-03
   444 OT LS       0.97E-01    4.5                    -7429.1616324081
   445 OT CG       0.97E-01   11.4     0.00007236     -7429.1616324734 -3.43E-03
   446 OT LS       0.97E-01    4.5                    -7429.1650339382
   447 OT CG       0.97E-01   11.4     0.00007189     -7429.1650341375 -3.40E-03
   448 OT LS       0.98E-01    4.5                    -7429.1684015411
   449 OT CG       0.98E-01   11.6     0.00007147     -7429.1684015673 -3.37E-03
   450 OT LS       0.98E-01    8.1                    -7429.1717278058
   451 OT CG       0.98E-01   11.4     0.00007113     -7429.1717278068 -3.33E-03
   452 OT LS       0.97E-01    4.5                    -7429.1749916912
   453 OT CG       0.97E-01   11.4     0.00007065     -7429.1749919673 -3.26E-03
   454 OT LS       0.97E-01    4.5                    -7429.1782242252
   455 OT CG       0.97E-01   11.4     0.00007006     -7429.1782242651 -3.23E-03
   456 OT LS       0.97E-01    4.5                    -7429.1814156933
   457 OT CG       0.97E-01   11.4     0.00006976     -7429.1814157421 -3.19E-03
   458 OT LS       0.97E-01    4.5                    -7429.1845521442
   459 OT CG       0.97E-01   11.4     0.00006924     -7429.1845523782 -3.14E-03
   460 OT LS       0.97E-01    4.5                    -7429.1876612341
   461 OT CG       0.97E-01   11.4     0.00006873     -7429.1876613539 -3.11E-03
   462 OT LS       0.97E-01    4.5                    -7429.1907300781
   463 OT CG       0.97E-01   11.4     0.00006836     -7429.1907300856 -3.07E-03
   464 OT LS       0.97E-01    4.8                    -7429.1937666989
   465 OT CG       0.97E-01   11.4     0.00006784     -7429.1937666991 -3.04E-03
   466 OT LS       0.98E-01    4.5                    -7429.1967636967
   467 OT CG       0.98E-01   11.4     0.00006751     -7429.1967637092 -3.00E-03
   468 OT LS       0.97E-01    4.5                    -7429.1997138939
   469 OT CG       0.97E-01   11.4     0.00006711     -7429.1997139927 -2.95E-03
   470 OT LS       0.96E-01    4.5                    -7429.2026117143
   471 OT CG       0.96E-01   11.4     0.00006672     -7429.2026118268 -2.90E-03
   472 OT LS       0.96E-01    4.5                    -7429.2054774747
   473 OT CG       0.96E-01   11.4     0.00006615     -7429.2054774749 -2.87E-03
   474 OT LS       0.97E-01    4.5                    -7429.2083114823
   475 OT CG       0.97E-01   11.4     0.00006566     -7429.2083115934 -2.83E-03
   476 OT LS       0.97E-01    4.5                    -7429.2111081269
   477 OT CG       0.97E-01   11.4     0.00006523     -7429.2111081339 -2.80E-03
   478 OT LS       0.97E-01    4.5                    -7429.2138604441
   479 OT CG       0.97E-01   11.6     0.00006486     -7429.2138604668 -2.75E-03
   480 OT LS       0.97E-01    4.5                    -7429.2165839537
   481 OT CG       0.97E-01   11.4     0.00006443     -7429.2165839548 -2.72E-03
   482 OT LS       0.97E-01    4.5                    -7429.2192789610
   483 OT CG       0.97E-01   11.4     0.00006402     -7429.2192789851 -2.70E-03
   484 OT LS       0.97E-01    5.2                    -7429.2219356108
   485 OT CG       0.97E-01   13.3     0.00006369     -7429.2219356169 -2.66E-03
   486 OT LS       0.97E-01    4.5                    -7429.2245511444
   487 OT CG       0.97E-01   11.4     0.00006338     -7429.2245512176 -2.62E-03
   488 OT LS       0.96E-01    4.5                    -7429.2271316536
   489 OT CG       0.96E-01   11.4     0.00006286     -7429.2271316991 -2.58E-03
   490 OT LS       0.97E-01    4.5                    -7429.2297013781
   491 OT CG       0.97E-01   11.4     0.00006236     -7429.2297017792 -2.57E-03
   492 OT LS       0.98E-01    4.5                    -7429.2322376378
   493 OT CG       0.98E-01   11.4     0.00006205     -7429.2322376553 -2.54E-03
   494 OT LS       0.97E-01    4.5                    -7429.2347338449
   495 OT CG       0.97E-01   11.5     0.00006170     -7429.2347339319 -2.50E-03
   496 OT LS       0.97E-01    4.5                    -7429.2372039352
   497 OT CG       0.97E-01   11.4     0.00006134     -7429.2372039362 -2.47E-03
   498 OT LS       0.98E-01    4.5                    -7429.2396529696
   499 OT CG       0.98E-01   11.4     0.00006100     -7429.2396529960 -2.45E-03
   500 OT LS       0.97E-01    4.5                    -7429.2420680231

  Leaving inner SCF loop after reaching   500 steps.


  Electronic density on regular grids:      -3287.9999971229        0.0000028771
  Core density on regular grids:             3287.9999997999       -0.0000002001
  Total charge density on r-space grids:        0.0000026770
  Total charge density g-space grids:           0.0000026770

  Overlap energy of the core charge distribution:               0.00000892927370
  Self energy of the core charge distribution:             -19117.60169404330736
  Core Hamiltonian energy:                                   5424.47870673028228
  Hartree energy:                                            7997.73991952451070
  Exchange-correlation energy:                              -1731.72684162785163
  Dispersion energy:                                           -2.13216753604659

  Total energy:                                             -7429.24206802313893

  outer SCF iter =    1 RMS gradient =   0.61E-04 energy =      -7429.2420680231

  ----------------------------------- OT ---------------------------------------
  Minimizer      : CG                  : conjugate gradient
  Preconditioner : FULL_ALL            : diagonalization, state selective
  Precond_solver : DEFAULT
  Line search    : 2PNT                : 2 energies, one gradient
  stepsize       :    0.15000000                  energy_gap     :    0.00100000
  eps_taylor     :   0.10000E-15                  max_taylor     :             4
  ----------------------------------- OT ---------------------------------------

  Step     Update method      Time    Convergence         Total energy    Change
  ------------------------------------------------------------------------------
     1 OT CG       0.15E+00   48.3     0.00041254     -7429.2420680418 -2.42E-03
     2 OT LS       0.25E+00    4.3                    -7429.4800631247
     3 OT CG       0.25E+00   11.2     0.00002321     -7429.5242853102 -2.82E-01
     4 OT LS       0.67E-01    4.3                    -7429.5227368546
     5 OT CG       0.67E-01   11.2     0.00000809     -7429.5245251241 -2.40E-04
     6 OT LS       0.70E-01    4.3                    -7429.5245557642
     7 OT CG       0.70E-01   11.2     0.00000279     -7429.5245558432 -3.07E-05
     8 OT LS       0.13E+00    4.3                    -7429.5245612043
     9 OT CG       0.13E+00   11.2     0.00000105     -7429.5245627569 -6.91E-06
    10 OT LS       0.10E+00    4.3                    -7429.5245634645
    11 OT CG       0.10E+00   11.2     0.00000047     -7429.5245635223 -7.65E-07

  *** SCF run converged in    11 steps ***


  Electronic density on regular grids:      -3287.9999971226        0.0000028774
  Core density on regular grids:             3287.9999997999       -0.0000002001
  Total charge density on r-space grids:        0.0000026772
  Total charge density g-space grids:           0.0000026772

  Overlap energy of the core charge distribution:               0.00000892927370
  Self energy of the core charge distribution:             -19117.60169404330736
  Core Hamiltonian energy:                                   5424.17512864933269
  Hartree energy:                                            7997.80432688082601
  Exchange-correlation energy:                              -1731.77016640240390
  Dispersion energy:                                           -2.13216753604659

  Total energy:                                             -7429.52456352232548

  outer SCF iter =    2 RMS gradient =   0.47E-06 energy =      -7429.5245635223
  outer SCF loop converged in   2 iterations or  511 steps


 ENERGY| Total FORCE_EVAL ( QS ) energy [a.u.]:            -7429.524563649922129

 ATOMIC FORCES in [a.u.]

 # Atom   Kind   Element          X              Y              Z
      1      1      Ti          0.00000000     0.00000000     0.00000000
      2      2      Si          0.00000000     0.00000000     0.00000000
      3      2      Si          0.00000000     0.00000000     0.00000000
      4      2      Si          0.00000000     0.00000000     0.00000000
      5      2      Si          0.00000000     0.00000000     0.00000000
      6      2      Si          0.00000000     0.00000000     0.00000000
      7      2      Si          0.00000000     0.00000000     0.00000000
      8      2      Si          0.00000000     0.00000000     0.00000000
      9      2      Si          0.00000000     0.00000000     0.00000000
     10      2      Si          0.00000000     0.00000000     0.00000000
     11      2      Si          0.00000000     0.00000000     0.00000000
     12      2      Si          0.00000000     0.00000000     0.00000000
     13      2      Si          0.00000000     0.00000000     0.00000000
     14      2      Si          0.00000000     0.00000000     0.00000000
     15      2      Si          0.00000000     0.00000000     0.00000000
     16      2      Si          0.00000000     0.00000000     0.00000000
     17      2      Si          0.00000000     0.00000000     0.00000000
     18      2      Si          0.00000000     0.00000000     0.00000000
     19      2      Si          0.00000000     0.00000000     0.00000000
     20      2      Si          0.00000000     0.00000000     0.00000000
     21      2      Si          0.00000000     0.00000000     0.00000000
     22      2      Si          0.00000000     0.00000000     0.00000000
     23      2      Si          0.00000000     0.00000000     0.00000000
     24      2      Si          0.00000000     0.00000000     0.00000000
     25      2      Si          0.00000000     0.00000000     0.00000000
     26      2      Si          0.00000000     0.00000000     0.00000000
     27      2      Si          0.00000000     0.00000000     0.00000000
     28      2      Si          0.00000000     0.00000000     0.00000000
     29      2      Si          0.00000000     0.00000000     0.00000000
     30      2      Si          0.00000000     0.00000000     0.00000000
     31      2      Si          0.00000000     0.00000000     0.00000000
     32      2      Si          0.00000000     0.00000000     0.00000000
     33      2      Si          0.00000000     0.00000000     0.00000000
     34      2      Si          0.00000000     0.00000000     0.00000000
     35      2      Si          0.00000000     0.00000000     0.00000000
     36      2      Si          0.00000000     0.00000000     0.00000000
     37      2      Si          0.00000000     0.00000000     0.00000000
     38      2      Si          0.00000000     0.00000000     0.00000000
     39      2      Si          0.00000000     0.00000000     0.00000000
     40      2      Si          0.00000000     0.00000000     0.00000000
     41      2      Si          0.00000000     0.00000000     0.00000000
     42      2      Si          0.00000000     0.00000000     0.00000000
     43      2      Si          0.00000000     0.00000000     0.00000000
     44      2      Si          0.00000000     0.00000000     0.00000000
     45      2      Si          0.00000000     0.00000000     0.00000000
     46      2      Si          0.00000000     0.00000000     0.00000000
     47      2      Si          0.00000000     0.00000000     0.00000000
     48      2      Si          0.00000000     0.00000000     0.00000000
     49      2      Si          0.00000000     0.00000000     0.00000000
     50      2      Si          0.00000000     0.00000000     0.00000000
     51      2      Si          0.00000000     0.00000000     0.00000000
     52      2      Si          0.00000000     0.00000000     0.00000000
     53      2      Si          0.00000000     0.00000000     0.00000000
     54      2      Si          0.00000000     0.00000000     0.00000000
     55      2      Si          0.00000000     0.00000000     0.00000000
     56      2      Si          0.00000000     0.00000000     0.00000000
     57      2      Si          0.00000000     0.00000000     0.00000000
     58      2      Si          0.00000000     0.00000000     0.00000000
     59      2      Si          0.00000000     0.00000000     0.00000000
     60      2      Si          0.00000000     0.00000000     0.00000000
     61      2      Si          0.00000000     0.00000000     0.00000000
     62      2      Si          0.00000000     0.00000000     0.00000000
     63      2      Si          0.00000000     0.00000000     0.00000000
     64      2      Si          0.00000000     0.00000000     0.00000000
     65      2      Si          0.00000000     0.00000000     0.00000000
     66      2      Si          0.00000000     0.00000000     0.00000000
     67      2      Si          0.00000000     0.00000000     0.00000000
     68      2      Si          0.00000000     0.00000000     0.00000000
     69      2      Si          0.00000000     0.00000000     0.00000000
     70      2      Si          0.00000000     0.00000000     0.00000000
     71      2      Si          0.00000000     0.00000000     0.00000000
     72      2      Si          0.00000000     0.00000000     0.00000000
     73      2      Si          0.00000000     0.00000000     0.00000000
     74      2      Si          0.00000000     0.00000000     0.00000000
     75      2      Si          0.00000000     0.00000000     0.00000000
     76      2      Si          0.00000000     0.00000000     0.00000000
     77      2      Si          0.00000000     0.00000000     0.00000000
     78      2      Si          0.00000000     0.00000000     0.00000000
     79      2      Si          0.00000000     0.00000000     0.00000000
     80      2      Si          0.00000000     0.00000000     0.00000000
     81      2      Si          0.00000000     0.00000000     0.00000000
     82      2      Si          0.00000000     0.00000000     0.00000000
     83      2      Si          0.00000000     0.00000000     0.00000000
     84      2      Si          0.00000000     0.00000000     0.00000000
     85      2      Si          0.00000000     0.00000000     0.00000000
     86      2      Si          0.00000000     0.00000000     0.00000000
     87      2      Si          0.00000000     0.00000000     0.00000000
     88      2      Si          0.00000000     0.00000000     0.00000000
     89      2      Si          0.00000000     0.00000000     0.00000000
     90      2      Si          0.00000000     0.00000000     0.00000000
     91      2      Si          0.00000000     0.00000000     0.00000000
     92      2      Si          0.00000000     0.00000000     0.00000000
     93      2      Si          0.00000000     0.00000000     0.00000000
     94      2      Si          0.00000000     0.00000000     0.00000000
     95      2      Si          0.00000000     0.00000000     0.00000000
     96      2      Si          0.00000000     0.00000000     0.00000000
     97      2      Si          0.00000000     0.00000000     0.00000000
     98      2      Si          0.00000000     0.00000000     0.00000000
     99      2      Si          0.00000000     0.00000000     0.00000000
    100      2      Si          0.00000000     0.00000000     0.00000000
    101      2      Si          0.00000000     0.00000000     0.00000000
    102      2      Si          0.00000000     0.00000000     0.00000000
    103      2      Si          0.00000000     0.00000000     0.00000000
    104      2      Si          0.00000000     0.00000000     0.00000000
    105      2      Si          0.00000000     0.00000000     0.00000000
    106      2      Si          0.00000000     0.00000000     0.00000000
    107      2      Si          0.00000000     0.00000000     0.00000000
    108      2      Si          0.00000000     0.00000000     0.00000000
    109      2      Si          0.00000000     0.00000000     0.00000000
    110      2      Si          0.00000000     0.00000000     0.00000000
    111      2      Si          0.00000000     0.00000000     0.00000000
    112      2      Si          0.00000000     0.00000000     0.00000000
    113      2      Si          0.00000000     0.00000000     0.00000000
    114      2      Si          0.00000000     0.00000000     0.00000000
    115      2      Si          0.00000000     0.00000000     0.00000000
    116      2      Si          0.00000000     0.00000000     0.00000000
    117      2      Si          0.00000000     0.00000000     0.00000000
    118      2      Si          0.00000000     0.00000000     0.00000000
    119      2      Si          0.00000000     0.00000000     0.00000000
    120      2      Si          0.00000000     0.00000000     0.00000000
    121      2      Si          0.00000000     0.00000000     0.00000000
    122      2      Si          0.00000000     0.00000000     0.00000000
    123      2      Si          0.00000000     0.00000000     0.00000000
    124      2      Si          0.00000000     0.00000000     0.00000000
    125      2      Si          0.00000000     0.00000000     0.00000000
    126      2      Si          0.00000000     0.00000000     0.00000000
    127      2      Si          0.00000000     0.00000000     0.00000000
    128      2      Si          0.00000000     0.00000000     0.00000000
    129      2      Si          0.00000000     0.00000000     0.00000000
    130      2      Si          0.00000000     0.00000000     0.00000000
    131      2      Si          0.00000000     0.00000000     0.00000000
    132      2      Si          0.00000000     0.00000000     0.00000000
    133      2      Si          0.00000000     0.00000000     0.00000000
    134      2      Si          0.00000000     0.00000000     0.00000000
    135      2      Si          0.00000000     0.00000000     0.00000000
    136      2      Si          0.00000000     0.00000000     0.00000000
    137      2      Si          0.00000000     0.00000000     0.00000000
    138      2      Si          0.00000000     0.00000000     0.00000000
    139      2      Si          0.00000000     0.00000000     0.00000000
    140      2      Si          0.00000000     0.00000000     0.00000000
    141      2      Si          0.00000000     0.00000000     0.00000000
    142      2      Si          0.00000000     0.00000000     0.00000000
    143      2      Si          0.00000000     0.00000000     0.00000000
    144      2      Si          0.00000000     0.00000000     0.00000000
    145      2      Si          0.00000000     0.00000000     0.00000000
    146      2      Si          0.00000000     0.00000000     0.00000000
    147      2      Si          0.00000000     0.00000000     0.00000000
    148      2      Si          0.00000000     0.00000000     0.00000000
    149      2      Si          0.00000000     0.00000000     0.00000000
    150      2      Si          0.00000000     0.00000000     0.00000000
    151      2      Si          0.00000000     0.00000000     0.00000000
    152      2      Si          0.00000000     0.00000000     0.00000000
    153      2      Si          0.00000000     0.00000000     0.00000000
    154      2      Si          0.00000000     0.00000000     0.00000000
    155      2      Si          0.00000000     0.00000000     0.00000000
    156      2      Si          0.00000000     0.00000000     0.00000000
    157      2      Si          0.00000000     0.00000000     0.00000000
    158      2      Si          0.00000000     0.00000000     0.00000000
    159      2      Si          0.00000000     0.00000000     0.00000000
    160      2      Si          0.00000000     0.00000000     0.00000000
    161      2      Si          0.00000000     0.00000000     0.00000000
    162      2      Si          0.00000000     0.00000000     0.00000000
    163      2      Si          0.00000000     0.00000000     0.00000000
    164      2      Si          0.00000000     0.00000000     0.00000000
    165      2      Si          0.00000000     0.00000000     0.00000000
    166      2      Si          0.00000000     0.00000000     0.00000000
    167      2      Si          0.00000000     0.00000000     0.00000000
    168      2      Si          0.00000000     0.00000000     0.00000000
    169      2      Si          0.00000000     0.00000000     0.00000000
    170      2      Si          0.00000000     0.00000000     0.00000000
    171      2      Si          0.00000000     0.00000000     0.00000000
    172      2      Si          0.00000000     0.00000000     0.00000000
    173      2      Si          0.00000000     0.00000000     0.00000000
    174      2      Si          0.00000000     0.00000000     0.00000000
    175      2      Si          0.00000000     0.00000000     0.00000000
    176      2      Si          0.00000000     0.00000000     0.00000000
    177      2      Si          0.00000000     0.00000000     0.00000000
    178      2      Si          0.00000000     0.00000000     0.00000000
    179      2      Si          0.00000000     0.00000000     0.00000000
    180      2      Si          0.00000000     0.00000000     0.00000000
    181      2      Si          0.00000000     0.00000000     0.00000000
    182      2      Si          0.00000000     0.00000000     0.00000000
    183      2      Si          0.00000000     0.00000000     0.00000000
    184      2      Si          0.00000000     0.00000000     0.00000000
    185      2      Si          0.00000000     0.00000000     0.00000000
    186      2      Si          0.00000000     0.00000000     0.00000000
    187      2      Si          0.00000000     0.00000000     0.00000000
    188      2      Si          0.00000000     0.00000000     0.00000000
    189      2      Si          0.00000000     0.00000000     0.00000000
    190      2      Si          0.00000000     0.00000000     0.00000000
    191      2      Si          0.00000000     0.00000000     0.00000000
    192      3      O           0.00000000     0.00000000     0.00000000
    193      3      O           0.00000000     0.00000000     0.00000000
    194      3      O           0.00000000     0.00000000     0.00000000
    195      3      O           0.00000000     0.00000000     0.00000000
    196      3      O           0.00000000     0.00000000     0.00000000
    197      3      O           0.00000000     0.00000000     0.00000000
    198      3      O           0.00000000     0.00000000     0.00000000
    199      3      O           0.00000000     0.00000000     0.00000000
    200      3      O           0.00000000     0.00000000     0.00000000
    201      3      O           0.00000000     0.00000000     0.00000000
    202      3      O           0.00000000     0.00000000     0.00000000
    203      3      O           0.00000000     0.00000000     0.00000000
    204      3      O           0.00000000     0.00000000     0.00000000
    205      3      O           0.00000000     0.00000000     0.00000000
    206      3      O           0.00000000     0.00000000     0.00000000
    207      3      O           0.00000000     0.00000000     0.00000000
    208      3      O           0.00000000     0.00000000     0.00000000
    209      3      O           0.00000000     0.00000000     0.00000000
    210      3      O           0.00000000     0.00000000     0.00000000
    211      3      O           0.00000000     0.00000000     0.00000000
    212      3      O           0.00000000     0.00000000     0.00000000
    213      3      O           0.00000000     0.00000000     0.00000000
    214      3      O           0.00000000     0.00000000     0.00000000
    215      3      O           0.00000000     0.00000000     0.00000000
    216      3      O           0.00000000     0.00000000     0.00000000
    217      3      O           0.00000000     0.00000000     0.00000000
    218      3      O           0.00000000     0.00000000     0.00000000
    219      3      O           0.00000000     0.00000000     0.00000000
    220      3      O           0.00000000     0.00000000     0.00000000
    221      3      O           0.00000000     0.00000000     0.00000000
    222      3      O           0.00000000     0.00000000     0.00000000
    223      3      O           0.00000000     0.00000000     0.00000000
    224      3      O           0.00000000     0.00000000     0.00000000
    225      3      O           0.00000000     0.00000000     0.00000000
    226      3      O           0.00000000     0.00000000     0.00000000
    227      3      O           0.00000000     0.00000000     0.00000000
    228      3      O           0.00000000     0.00000000     0.00000000
    229      3      O           0.00000000     0.00000000     0.00000000
    230      3      O           0.00000000     0.00000000     0.00000000
    231      3      O           0.00000000     0.00000000     0.00000000
    232      3      O           0.00000000     0.00000000     0.00000000
    233      3      O           0.00000000     0.00000000     0.00000000
    234      3      O           0.00000000     0.00000000     0.00000000
    235      3      O           0.00000000     0.00000000     0.00000000
    236      3      O           0.00000000     0.00000000     0.00000000
    237      3      O           0.00000000     0.00000000     0.00000000
    238      3      O           0.00000000     0.00000000     0.00000000
    239      3      O           0.00000000     0.00000000     0.00000000
    240      3      O           0.00000000     0.00000000     0.00000000
    241      3      O           0.00000000     0.00000000     0.00000000
    242      3      O           0.00000000     0.00000000     0.00000000
    243      3      O           0.00000000     0.00000000     0.00000000
    244      3      O           0.00000000     0.00000000     0.00000000
    245      3      O           0.00000000     0.00000000     0.00000000
    246      3      O           0.00000000     0.00000000     0.00000000
    247      3      O           0.00000000     0.00000000     0.00000000
    248      3      O           0.00000000     0.00000000     0.00000000
    249      3      O           0.00000000     0.00000000     0.00000000
    250      3      O           0.00000000     0.00000000     0.00000000
    251      3      O           0.00000000     0.00000000     0.00000000
    252      3      O           0.00000000     0.00000000     0.00000000
    253      3      O           0.00000000     0.00000000     0.00000000
    254      3      O           0.00000000     0.00000000     0.00000000
    255      3      O           0.00000000     0.00000000     0.00000000
    256      3      O           0.00000000     0.00000000     0.00000000
    257      3      O           0.00000000     0.00000000     0.00000000
    258      3      O           0.00000000     0.00000000     0.00000000
    259      3      O           0.00000000     0.00000000     0.00000000
    260      3      O           0.00000000     0.00000000     0.00000000
    261      3      O           0.00000000     0.00000000     0.00000000
    262      3      O           0.00000000     0.00000000     0.00000000
    263      3      O           0.00000000     0.00000000     0.00000000
    264      3      O           0.00000000     0.00000000     0.00000000
    265      3      O           0.00000000     0.00000000     0.00000000
    266      3      O           0.00000000     0.00000000     0.00000000
    267      3      O           0.00000000     0.00000000     0.00000000
    268      3      O           0.00000000     0.00000000     0.00000000
    269      3      O           0.00000000     0.00000000     0.00000000
    270      3      O           0.00000000     0.00000000     0.00000000
    271      3      O           0.00000000     0.00000000     0.00000000
    272      3      O           0.00000000     0.00000000     0.00000000
    273      3      O           0.00000000     0.00000000     0.00000000
    274      3      O           0.00000000     0.00000000     0.00000000
    275      3      O           0.00000000     0.00000000     0.00000000
    276      3      O           0.00000000     0.00000000     0.00000000
    277      3      O           0.00000000     0.00000000     0.00000000
    278      3      O           0.00000000     0.00000000     0.00000000
    279      3      O           0.00000000     0.00000000     0.00000000
    280      3      O           0.00000000     0.00000000     0.00000000
    281      3      O           0.00000000     0.00000000     0.00000000
    282      3      O           0.00000000     0.00000000     0.00000000
    283      3      O           0.00000000     0.00000000     0.00000000
    284      3      O           0.00000000     0.00000000     0.00000000
    285      3      O           0.00000000     0.00000000     0.00000000
    286      3      O           0.00000000     0.00000000     0.00000000
    287      3      O           0.00000000     0.00000000     0.00000000
    288      3      O           0.00000000     0.00000000     0.00000000
    289      3      O           0.00000000     0.00000000     0.00000000
    290      3      O           0.00000000     0.00000000     0.00000000
    291      3      O           0.00000000     0.00000000     0.00000000
    292      3      O           0.00000000     0.00000000     0.00000000
    293      3      O           0.00000000     0.00000000     0.00000000
    294      3      O           0.00000000     0.00000000     0.00000000
    295      3      O           0.00000000     0.00000000     0.00000000
    296      3      O           0.00000000     0.00000000     0.00000000
    297      3      O           0.00000000     0.00000000     0.00000000
    298      3      O           0.00000000     0.00000000     0.00000000
    299      3      O           0.00000000     0.00000000     0.00000000
    300      3      O           0.00000000     0.00000000     0.00000000
    301      3      O           0.00000000     0.00000000     0.00000000
    302      3      O           0.00000000     0.00000000     0.00000000
    303      3      O           0.00000000     0.00000000     0.00000000
    304      3      O           0.00000000     0.00000000     0.00000000
    305      3      O           0.00000000     0.00000000     0.00000000
    306      3      O           0.00000000     0.00000000     0.00000000
    307      3      O           0.00000000     0.00000000     0.00000000
    308      3      O           0.00000000     0.00000000     0.00000000
    309      3      O           0.00000000     0.00000000     0.00000000
    310      3      O           0.00000000     0.00000000     0.00000000
    311      3      O           0.00000000     0.00000000     0.00000000
    312      3      O           0.00000000     0.00000000     0.00000000
    313      3      O           0.00000000     0.00000000     0.00000000
    314      3      O           0.00000000     0.00000000     0.00000000
    315      3      O           0.00000000     0.00000000     0.00000000
    316      3      O           0.00000000     0.00000000     0.00000000
    317      3      O           0.00000000     0.00000000     0.00000000
    318      3      O           0.00000000     0.00000000     0.00000000
    319      3      O           0.00000000     0.00000000     0.00000000
    320      3      O           0.00000000     0.00000000     0.00000000
    321      3      O           0.00000000     0.00000000     0.00000000
    322      3      O           0.00000000     0.00000000     0.00000000
    323      3      O           0.00000000     0.00000000     0.00000000
    324      3      O           0.00000000     0.00000000     0.00000000
    325      3      O           0.00000000     0.00000000     0.00000000
    326      3      O           0.00000000     0.00000000     0.00000000
    327      3      O           0.00000000     0.00000000     0.00000000
    328      3      O           0.00000000     0.00000000     0.00000000
    329      3      O           0.00000000     0.00000000     0.00000000
    330      3      O           0.00000000     0.00000000     0.00000000
    331      3      O           0.00000000     0.00000000     0.00000000
    332      3      O           0.00000000     0.00000000     0.00000000
    333      3      O           0.00000000     0.00000000     0.00000000
    334      3      O           0.00000000     0.00000000     0.00000000
    335      3      O           0.00000000     0.00000000     0.00000000
    336      3      O           0.00000000     0.00000000     0.00000000
    337      3      O           0.00000000     0.00000000     0.00000000
    338      3      O           0.00000000     0.00000000     0.00000000
    339      3      O           0.00000000     0.00000000     0.00000000
    340      3      O           0.00000000     0.00000000     0.00000000
    341      3      O           0.00000000     0.00000000     0.00000000
    342      3      O           0.00000000     0.00000000     0.00000000
    343      3      O           0.00000000     0.00000000     0.00000000
    344      3      O           0.00000000     0.00000000     0.00000000
    345      3      O           0.00000000     0.00000000     0.00000000
    346      3      O           0.00000000     0.00000000     0.00000000
    347      3      O           0.00000000     0.00000000     0.00000000
    348      3      O           0.00000000     0.00000000     0.00000000
    349      3      O           0.00000000     0.00000000     0.00000000
    350      3      O           0.00000000     0.00000000     0.00000000
    351      3      O           0.00000000     0.00000000     0.00000000
    352      3      O           0.00000000     0.00000000     0.00000000
    353      3      O           0.00000000     0.00000000     0.00000000
    354      3      O           0.00000000     0.00000000     0.00000000
    355      3      O           0.00000000     0.00000000     0.00000000
    356      3      O           0.00000000     0.00000000     0.00000000
    357      3      O           0.00000000     0.00000000     0.00000000
    358      3      O           0.00000000     0.00000000     0.00000000
    359      3      O           0.00000000     0.00000000     0.00000000
    360      3      O           0.00000000     0.00000000     0.00000000
    361      3      O           0.00000000     0.00000000     0.00000000
    362      3      O           0.00000000     0.00000000     0.00000000
    363      3      O           0.00000000     0.00000000     0.00000000
    364      3      O           0.00000000     0.00000000     0.00000000
[...]
 flops  2028 x   268 x   675        4540323715200       0.0%    100.0%      0.0%
 flops  2025 x   288 x   160        4580312832000       0.0%    100.0%      0.0%
 flops  2028 x   288 x   160        4587098480640       0.0%    100.0%      0.0%
 flops    13 x    32 x     5        5150244041280       0.0%    100.0%      0.0%
 flops     5 x    32 x    13        5150244041280       0.0%    100.0%      0.0%
 flops  2033 x   256 x   160        5449964912640       0.0%    100.0%      0.0%
 flops  2025 x   256 x   128        5790420172800       0.0%    100.0%      0.0%
 flops  2028 x   256 x   128        5798998573056       0.0%    100.0%      0.0%
 flops  2033 x   268 x   128        6085794152448       0.0%    100.0%      0.0%
 flops   416 x   268 x   675        6340333708800       0.0%    100.0%      0.0%
 flops   396 x   288 x   675        6485921164800       0.0%    100.0%      0.0%
 flops   416 x   288 x   128        7411058343936       0.0%    100.0%      0.0%
 flops    13 x    13 x   160        7836785960640       0.0%    100.0%      0.0%
 flops  2025 x   256 x   675        8661219840000       0.0%    100.0%      0.0%
 flops  2028 x   256 x   675        8674051276800       0.0%    100.0%      0.0%
 flops  2033 x   268 x   675        9103035614400       0.0%    100.0%      0.0%
 flops  2033 x   288 x   160        9196815790080       0.0%    100.0%      0.0%
 flops  2025 x   288 x   128        9771334041600       0.0%    100.0%      0.0%
 flops  2028 x   288 x   128        9785810092032       0.0%    100.0%      0.0%
 flops  2033 x   256 x   128       11626591813632       0.0%    100.0%      0.0%
 flops   416 x   256 x   675       12112876339200       0.0%    100.0%      0.0%
 flops  2025 x   288 x   675       14615808480000       0.0%    100.0%      0.0%
 flops  2028 x   288 x   675       14637461529600       0.0%    100.0%      0.0%
 flops    13 x    13 x   128       16718476716032       0.0%    100.0%      0.0%
 flops  2033 x   256 x   675       17390874009600       0.0%    100.0%      0.0%
 flops  2033 x   288 x   128       19619873685504       0.0%    100.0%      0.0%
 flops   416 x   288 x   675       20440478822400       0.0%    100.0%      0.0%
 flops  2033 x   288 x   675       29347099891200       0.0%    100.0%      0.0%
 flops    13 x    32 x    13      100601770049664       0.0%    100.0%      0.0%
 flops inhomo. stacks              72741498255360     100.0%      0.0%      0.0%
 flops total                       574.246097E+12      12.7%     87.3%      0.0%
 flops max/rank                     25.271584E+12      12.7%     87.3%      0.0%
 matmuls inhomo. stacks                    208080     100.0%      0.0%      0.0%
 matmuls total                        13088176692       0.0%    100.0%      0.0%
 number of processed stacks              18168159       1.1%     98.9%      0.0%
 average stack size                                     1.0     728.7       0.0
 marketing flops                   960.916791E+12
 -------------------------------------------------------------------------------
 # multiplications                          11492
 max memory usage/rank             980.848640E+06
 # max total images/rank                        3
 # max 3D layers                                1
 # MPI messages exchanged                 5240352
 MPI messages size (bytes):
  total size                         9.172745E+12
  min size                           0.000000E+00
  max size                          11.449856E+06
  average size                       1.750406E+06
 MPI breakdown and total messages size (bytes):
             size <=      128               26076                        0
       128 < size <=     8192                   0                        0
      8192 < size <=    32768                 984                 32243712
     32768 < size <=   131072                 492                 19286400
    131072 < size <=  4194304             5000640            6841626907360
   4194304 < size <= 16777216              212160            2330866172960
  16777216 < size                               0                        0
 -------------------------------------------------------------------------------

 *** WARNING in dbcsr_mm.F:294 :: Using a non-square number of MPI ranks ***
 *** might lead to poor performance. Used ranks: 24 Suggested: 25 49     ***

 -------------------------------------------------------------------------------
 -                                                                             -
 -                      DBCSR MESSAGE PASSING PERFORMANCE                      -
 -                                                                             -
 -------------------------------------------------------------------------------
 ROUTINE             CALLS      AVE VOLUME [Bytes]
 MP_Bcast              142                     12.
 MP_Allreduce        58235                    121.
 MP_Alltoall         49944                 715846.
 MP_ISend           530100                 789928.
 MP_IRecv           521226                 796306.
 -------------------------------------------------------------------------------

 -------------------------------------------------------------------------------
 -                                                                             -
 -                                GRID STATISTICS                              -
 -                                                                             -
 -------------------------------------------------------------------------------
 LP    KERNEL             BACKEND                              COUNT     PERCENT
 4     collocate ortho    REF                              233435536      50.74%
 4     integrate ortho    REF                              116717768      25.37%
 3     collocate ortho    REF                               49050392      10.66%
 3     integrate ortho    REF                               24525196       5.33%
 2     collocate ortho    REF                               12315454       2.68%
 7     integrate ortho    REF                               11351577       2.47%
 2     integrate ortho    REF                                6157727       1.34%
 6     integrate ortho    REF                                2399852       0.52%
 5     collocate ortho    REF                                1430768       0.31%
 5     integrate ortho    REF                                1314322       0.29%
 0     collocate general  REF                                 631680       0.14%
 3     integrate general  REF                                 615888       0.13%
 8     integrate ortho    REF                                  69576       0.02%
 6     collocate ortho    REF                                  28872       0.01%
 9     integrate ortho    REF                                   1404       0.00%
 -------------------------------------------------------------------------------

 MEMORY| Estimated peak process memory [MiB]                                 936

 -------------------------------------------------------------------------------
 -                                                                             -
 -                         MESSAGE PASSING PERFORMANCE                         -
 -                                                                             -
 -------------------------------------------------------------------------------

 ROUTINE             CALLS      AVE VOLUME [Bytes]
 MP_Group                5
 MP_Bcast            35706                 236931.
 MP_Allreduce        94149                   1218.
 MP_Sync               700
 MP_Alltoall         13576               34224592.
 MP_SendRecv          3588                  16175.
 MP_ISendRecv        85698                 127093.
 MP_Wait            168877
 MP_ISend            74248                 803164.
 MP_IRecv            74248                 803335.
 MP_Recv              5427                1428577.
 -------------------------------------------------------------------------------


 -------------------------------------------------------------------------------
 -                                                                             -
 -                           R E F E R E N C E S                               -
 -                                                                             -
 -------------------------------------------------------------------------------
 
 CP2K version 9.1, the CP2K developers group (2021).
 CP2K is freely available from https://www.cp2k.org/ .

 Kuehne,Thomas D.; Iannuzzi,Marcella; Del Ben,Mauro;
 Rybkin,Vladimir V.; Seewald,Patrick; Stein,Frederick; Laino,Teodoro;
 Khaliullin,Rustam Z.; Schuett,Ole; Schiffmann,Florian; Golze,Dorothea;
 Wilhelm,Jan; Chulkov,Sergey; Bani-Hashemian,Mohammad Hossein;
 Weber,Valery; Borstnik,Urban; Taillefumier,Mathieu;
 Jakobovits,Alice Shoshana; Lazzaro,Alfio; Pabst,Hans; Mueller,Tiziano;
 Schade,Robert; Guidon,Manuel; Andermatt,Samuel; Holmberg,Nico;
 Schenter,Gregory K.; Hehn,Anna; Bussy,Augustin; Belleflamme,Fabian;
 Tabacchi,Gloria; Gloess,Andreas; Lass,Michael; Bethune,Iain;
 Mundy,Christopher J.; Plessl,Christian; Watkins,Matt;
 VandeVondele,Joost; Krack,Matthias; Hutter,Juerg. 
 The Journal of Chemical Physics, 152 (19), (2020). 
 CP2K: An electronic structure and molecular dynamics software package -
 Quickstep: Efficient and accurate electronic structure calculations.
 https://doi.org/10.1063/5.0007045

 Goerigk, Lars; Hansen, Andreas; Bauer, Christoph; Ehrlich, Stephan;
 Najibi, Asim; Grimme, Stefan. , 19 (48), (2017). 
 A look at the density functional theory zoo with the advanced GMTKN55 database
 for general main group thermochemistry, kinetics and noncovalent interactions.
 https://doi.org/10.1039/C7CP04913G

 Schuett, Ole; Messmer, Peter; Hutter, Juerg; VandeVondele, Joost. 
 Electronic Structure Calculations on Graphics Processing Units, John
 Wiley & Sons, Ltd, 173-190 (2016). 
 GPU-Accelerated Sparse Matrix-Matrix Multiplication for
 Linear Scaling Density Functional Theory.
 https://doi.org/10.1002/9781118670712.ch8

 Heinecke, A; Henry, G; Hutchinson, M; Pabst, H. 
 Proceedings of Intl. Supercomputing Conference, 981-991 (2016). 
 LIBXSMM: Accelerating Small Matrix Multiplications
 by Runtime Code Generation.
 https://doi.org/10.1109/SC.2016.83

 Borstnik, U; VandeVondele, J; Weber, V; Hutter, J. 
 PARALLEL COMPUTING, 40 (5-6), 47-58 (2014). 
 Sparse matrix multiplication: The distributed block-compressed sparse
 row library.
 https://doi.org/10.1016/j.parco.2014.03.012

 Hutter, J; Iannuzzi, M; Schiffmann, F; VandeVondele, J. 
 WIREs Comput Mol Sci., 4 (1), 15-25 (2014). 
 CP2K: atomistic simulations of condensed matter systems.
 https://doi.org/10.1002/wcms.1159

 Grimme, S; Ehrlich, S; Goerigk, L. 
 JOURNAL OF COMPUTATIONAL CHEMISTRY, 32, 1456 (2011). 
 Effect of the damping function in dispersion corrected density functional theory.
 https://doi.org/10.1002/jcc.21759

 Grimme, S; Antony, J; Ehrlich, S; Krieg, H. 
 JOURNAL OF CHEMICAL PHYSICS, 132 (15), 154104 (2010). 
 A consistent and accurate ab initio parametrization of density
 functional dispersion correction (DFT-D) for the 94 elements H-Pu.
 https://doi.org/10.1063/1.3382344

 VandeVondele, J; Hutter, J. 
 JOURNAL OF CHEMICAL PHYSICS, 127 (11), 114105 (2007). 
 Gaussian basis sets for accurate calculations on molecular systems in
 gas and condensed phases.
 https://doi.org/10.1063/1.2770708

 Kuhne, TD; Krack, M; Mohamed, FR; Parrinello, M. 
 PHYSICAL REVIEW LETTERS, 98 (6), 066401 (2007). 
 Efficient and accurate Car-Parrinello-like approach to
 Born-Oppenheimer molecular dynamics.
 https://doi.org/10.1103/PhysRevLett.98.066401

 Krack, M. 
 THEORETICAL CHEMISTRY ACCOUNTS, 114 (1-3), 145-152 (2005). 
 Pseudopotentials for H to Kr optimized for gradient-corrected
 exchange-correlation functionals.
 https://doi.org/10.1007/s00214-005-0655-y

 VandeVondele, J; Krack, M; Mohamed, F; Parrinello, M; Chassaing, T;
 Hutter, J. COMPUTER PHYSICS COMMUNICATIONS, 167 (2), 103-128 (2005). 
 QUICKSTEP: Fast and accurate density functional calculations using a
 mixed Gaussian and plane waves approach.
 https://doi.org/10.1016/j.cpc.2004.12.014

 Frigo, M; Johnson, SG. 
 PROCEEDINGS OF THE IEEE, 93 (2), 216-231 (2005). 
 The design and implementation of FFTW3.
 https://doi.org/10.1109/JPROC.2004.840301

 Kolafa, J. 
 JOURNAL OF COMPUTATIONAL CHEMISTRY, 25 (3), 335-342 (2004). 
 Time-reversible always stable predictor-corrector method for
 molecular dynamics of polarizable molecules.
 https://doi.org/10.1002/jcc.10385

 VandeVondele, J; Hutter, J. 
 JOURNAL OF CHEMICAL PHYSICS, 118 (10), 4365-4369 (2003). 
 An efficient orbital transformation method for electronic structure
 calculations.
 https://doi.org/10.1063/1.1543154

 Hartwigsen, C; Goedecker, S; Hutter, J. 
 PHYSICAL REVIEW B, 58 (7), 3641-3662 (1998). 
 Relativistic separable dual-space Gaussian pseudopotentials from H to Rn.
 https://doi.org/10.1103/PhysRevB.58.3641

 Lippert, G; Hutter, J; Parrinello, M. 
 MOLECULAR PHYSICS, 92 (3), 477-487 (1997). 
 A hybrid Gaussian and plane wave density functional scheme.
 https://doi.org/10.1080/002689797170220

 Perdew, JP; Burke, K; Ernzerhof, M. 
 PHYSICAL REVIEW LETTERS, 77 (18), 3865-3868 (1996). 
 Generalized gradient approximation made simple.
 https://doi.org/10.1103/PhysRevLett.77.3865

 Goedecker, S; Teter, M; Hutter, J. 
 PHYSICAL REVIEW B, 54 (3), 1703-1710 (1996). 
 Separable dual-space Gaussian pseudopotentials.
 https://doi.org/10.1103/PhysRevB.54.1703


 -------------------------------------------------------------------------------
 -                                                                             -
 -                                T I M I N G                                  -
 -                                                                             -
 -------------------------------------------------------------------------------
 SUBROUTINE                       CALLS  ASD         SELF TIME        TOTAL TIME
                                MAXIMUM       AVERAGE  MAXIMUM  AVERAGE  MAXIMUM
 CP2K                                 1  1.0    0.031    0.059 8295.019 8295.029
 cp_geo_opt                           1  2.0    0.001    0.001 8293.562 8293.614
 geoopt_bfgs                          1  3.0    0.246    0.272 8293.561 8293.613
 cp_eval_at                          40  4.0    0.010    0.067 8267.459 8267.483
 qs_forces                           39  5.0    0.013    0.014 8172.602 8172.610
 qs_energies                         40  6.0    0.005    0.008 7809.868 7810.083
 scf_env_do_scf                      40  7.0    0.003    0.005 7528.819 7528.872
 scf_env_do_scf_inner_loop          762  8.0    0.018    0.061 6010.161 6018.696
 rebuild_ks_matrix                  801  9.8    0.004    0.005 2966.973 2969.174
 qs_ks_build_kohn_sham_matrix       801 10.8    0.117    0.128 2966.969 2969.170
 qs_ks_update_qs_env                803  9.0    0.006    0.007 2609.939 2611.948
 dbcsr_multiply_generic           11492 13.8    0.877    0.930 2052.692 2064.300
 qs_scf_new_mos                     762  9.0    0.005    0.006 1977.326 1982.409
 qs_scf_loop_do_ot                  762 10.0    0.006    0.007 1977.321 1982.403
 ot_scf_mini                        762 11.0    0.035    0.042 1840.556 1842.961
 multiply_cannon                  11492 14.8    1.214    1.374 1733.553 1765.221
 qs_rho_update_rho                  802  9.0    0.004    0.005 1716.577 1719.636
 calculate_rho_elec                 802 10.0    3.499    3.568 1716.572 1719.632
 multiply_cannon_loop             11492 15.8    1.862    2.112 1673.282 1707.565
 init_scf_loop                       41  8.0    0.002    0.003 1509.127 1509.184
 sum_up_and_integrate               440 11.7    2.143    2.176 1483.973 1484.234
 integrate_v_rspace                 440 12.7    0.018    0.021 1481.829 1482.122
 multiply_cannon_multrec         137904 16.8 1340.385 1418.163 1340.565 1418.348
 grid_collocate_task_list           802 11.0 1255.610 1283.976 1255.610 1283.976
 grid_integrate_task_list           440 13.7 1269.604 1276.497 1269.604 1276.497
 prepare_preconditioner              41  9.0    0.000    0.001 1270.049 1270.429
 make_preconditioner                 41 10.0    0.001    0.002 1225.714 1226.104
 qs_vxc_create                      801 11.8    0.016    0.018 1215.055 1215.484
 make_full_all                       41 11.0    0.071    0.085 1189.505 1190.353
 pw_transfer                      13257 13.3    1.047    1.176 1135.884 1149.090
 fft_wrap_pw1pw2                  11655 14.4    0.158    0.169 1118.677 1131.887
 fft_wrap_pw1pw2_180               6687 15.6   94.906   95.840 1080.137 1093.849
 ot_mini                            762 12.0    0.006    0.008 1077.918 1081.424
 cp_fm_syevd                        695 13.9    0.013    0.015  893.288  893.949
 cp_fm_syevd_base                   695 14.9  887.551  887.683  887.551  887.683
 xc_rho_set_and_dset_create         801 13.8    6.573    6.637  857.904  864.420
 fft3d_ps                         11655 16.4  473.175  484.711  840.307  855.261
 xc_vxc_pw_create                   440 12.7   29.136   32.026  825.099  825.483
 apply_preconditioner_dbcsr         442 14.0    0.001    0.002  616.002  620.513
 apply_all                          442 15.0    0.754    0.809  616.001  620.511
 ot_new_cg_direction                401 13.0    0.009    0.010  568.820  568.835
 qs_ot_get_derivative               401 13.0    0.006    0.008  504.983  507.172
 mp_waitall_1                    738181 17.6  410.800  487.233  410.800  487.233
 density_rs2pw                      802 11.0    0.059    0.073  441.108  460.117
 xc_functional_eval                 801 14.8    0.011    0.013  392.577  399.623
 pbe_lda_eval                       801 15.8  392.566  399.611  392.566  399.611
 multiply_cannon_metrocomm3      137904 16.8    0.481    0.587  318.312  395.280
 xc_exc_calc                        361 13.0    1.528    1.542  389.939  389.995
 qs_ks_update_qs_env_forces          39  6.0    0.000    0.000  360.151  360.320
 qs_ot_get_p                        803 11.9    0.006    0.008  323.476  328.968
 rs_pw_transfer                    6289 13.0    0.092    0.105  252.404  273.694
 x_to_yz                           5845 18.1  177.707  179.184  238.137  241.535
 qs_ot_get_orbitals                 762 12.0    0.006    0.007  238.778  240.634
 make_m2s                         22984 14.8    0.852    0.938  233.064  235.422
 qs_ot_get_derivative_diag          265 14.0    0.009    0.011  227.492  229.024
 init_scf_run                        40  7.0    0.001    0.003  212.652  212.659
 scf_env_initial_rho_setup           40  8.0    0.001    0.002  212.651  212.658
 cp_gemm                            655 10.2    0.002    0.002  210.177  211.564
 cp_gemm_fm_gemm                    655 11.2    0.002    0.003  210.175  211.562
 cp_fm_gemm                         655 12.2  210.173  211.559  210.173  211.559
 wfi_extrapolate                     40  9.0    0.006    0.007  208.215  208.221
 potential_pw2rs                    440 13.7    0.163    0.231  188.285  188.498
 qs_ot_p2m_diag                     533 13.0    5.767    6.204  182.303  183.382
 make_images                      22984 15.8    5.341    5.441  164.732  167.797
 -------------------------------------------------------------------------------

 The number of warnings for this run is : 2
 
 -------------------------------------------------------------------------------
  **** **** ******  **  PROGRAM ENDED AT                 2022-09-04 20:07:17.014
 ***** ** ***  *** **   PROGRAM RAN ON             node1279.palmetto.clemson.edu
 **    ****   ******    PROGRAM RAN BY                                   xiutinc
 ***** **    ** ** **   PROGRAM PROCESS ID                               3735683
  **** **  *******  **  PROGRAM STOPPED IN    /scratch1/xiutinc/CP2K-97006.pbs02
