 DBCSR| CPU Multiplication driver                                           XSMM (U)
 DBCSR| Multrec recursion limit                                              512 (U)
 DBCSR| Multiplication stack size                                           1000 (D)
 DBCSR| Maximum elements for images                                    UNLIMITED (U)
 DBCSR| Multiplicative factor virtual images                                   1 (U)
 DBCSR| Use multiplication densification                                       T (D)
 DBCSR| Multiplication size stacks                                             3 (U)
 DBCSR| Use memory pool for CPU allocation                                     F (U)
 DBCSR| Number of 3D layers                                               SINGLE (U)
 DBCSR| Use MPI memory allocation                                              F (U)
 DBCSR| Use RMA algorithm                                                      F (U)
 DBCSR| Use Communication thread                                               T (U)
 DBCSR| Communication thread load                                             87 (D)
 DBCSR| MPI: My process id                                                     0
 DBCSR| MPI: Number of processes                                              24
 DBCSR| OMP: Current number of threads                                         1
 DBCSR| OMP: Max number of threads                                             1
 DBCSR| Split modifier for TAS multiplication algorithm                  1.0E+00 (U)


  **** **** ******  **  PROGRAM STARTED AT               2025-01-28 14:24:18.351
 ***** ** ***  *** **   PROGRAM STARTED ON                     c0141.ten.osc.edu
 **    ****   ******    PROGRAM STARTED BY                               xiutinc
 ***** **    ** ** **   PROGRAM PROCESS ID                                424701
  **** **  *******  **  PROGRAM STARTED IN /fs/scratch/PAS2536/xiutinc/386245.ad
                                           l02_01_02_propanol

 CP2K| version string:                                       CP2K version 2023.2
 CP2K| source code revision number:                                  git:65cca6c
 CP2K| cp2kflags: omp libint fftw3 libxc parallel scalapack xsmm plumed2 mkl sir
 CP2K|            ius
 CP2K| is freely available from                            https://www.cp2k.org/
 CP2K| Program compiled at                          Mon Oct 14 13:01:09 EDT 2024
 CP2K| Program compiled on                             cardinal-rw02.ten.osc.edu
 CP2K| Program compiled for                       linux-rhel9-sapphirerapids-gcc
 CP2K| Data directory path    /apps/spack/0.21/cardinal/linux-rhel9-sapphirerapi
 CP2K| Input file name                                             intE09_aq.inp

 GLOBAL| Force Environment number                                              1
 GLOBAL| Basis set file name                                          BASIS_file
 GLOBAL| Potential file name                                     POTENTIALS_file
 GLOBAL| MM Potential file name                                     MM_POTENTIAL
 GLOBAL| Coordinate file name                                    ./intE09_aq.xyz
 GLOBAL| Method name                                                        CP2K
 GLOBAL| Project name                                                  intE09_aq
 GLOBAL| Run type                                                        GEO_OPT
 GLOBAL| FFT library                                                       FFTW3
 GLOBAL| Diagonalization library                                       ScaLAPACK
 GLOBAL| DGEMM library                                                      BLAS
 GLOBAL| Orthonormality check for eigenvectors                          DISABLED
 GLOBAL| Matrix multiplication library                                 ScaLAPACK
 GLOBAL| All-to-all communication in single precision                          F
 GLOBAL| FFTs using library dependent lengths                                  F
 GLOBAL| Grid backend                                                       AUTO
 GLOBAL| Global print level                                                  LOW
 GLOBAL| MPI I/O enabled                                                       T
 GLOBAL| Total number of message passing processes                            24
 GLOBAL| Number of threads for this process                                    1
 GLOBAL| This output is from process                                           0
 GLOBAL| Stack size for threads created by OpenMP (OMP_STACKSIZE)        default
 GLOBAL| CPU model name                            Intel(R) Xeon(R) CPU Max 9470
 GLOBAL| CPUID                                                              1003

 MEMORY| system memory details [Kb]
 MEMORY|                        rank 0           min           max       average
 MEMORY| MemTotal            662060520     662060520     662060520     662060520
 MEMORY| MemFree             610944076     610944076     610954408     610949987
 MEMORY| Buffers                331104        331104        331104        331104
 MEMORY| Cached                9091740       9091740       9091740       9091740
 MEMORY| Slab                  1455664       1455664       1455664       1455664
 MEMORY| SReclaimable           453676        453676        453676        453676
 MEMORY| MemLikelyFree       620820596     620820596     620830928     620826507


 *******************************************************************************
 *******************************************************************************
 **                                                                           **
 **     #####                         ##              ##                      **
 **    ##   ##            ##          ##              ##                      **
 **   ##     ##                       ##            ######                    **
 **   ##     ##  ##   ##  ##   #####  ##  ##   ####   ##    #####    #####    **
 **   ##     ##  ##   ##  ##  ##      ## ##   ##      ##   ##   ##  ##   ##   **
 **   ##  ## ##  ##   ##  ##  ##      ####     ###    ##   ######   ######    **
 **    ##  ###   ##   ##  ##  ##      ## ##      ##   ##   ##       ##        **
 **     #######   #####   ##   #####  ##  ##  ####    ##    #####   ##        **
 **           ##                                                    ##        **
 **                                                                           **
 **                                                ... make the atoms dance   **
 **                                                                           **
 **            Copyright (C) by CP2K developers group (2000-2023)             **
 **                      J. Chem. Phys. 152, 194103 (2020)                    **
 **                                                                           **
 *******************************************************************************


 TOTAL NUMBERS AND MAXIMUM NUMBERS

  Total number of            - Atomic kinds:                                   5
                             - Atoms:                                        648
                             - Shell sets:                                   648
                             - Shells:                                      3143
                             - Primitive Cartesian functions:               3051
                             - Cartesian basis functions:                   8639
                             - Spherical basis functions:                   8037

  Maximum angular momentum of- Orbital basis functions:                        3
                             - Local part of the GTH pseudopotential:          2
                             - Non-local part of the GTH pseudopotential:      3


 SCF PARAMETERS         Density guess:                                   RESTART
                        --------------------------------------------------------
                        max_scf:                                             500
                        max_scf_history:                                       0
                        max_diis:                                              4
                        --------------------------------------------------------
                        eps_scf:                                        1.00E-06
                        eps_scf_history:                                0.00E+00
                        eps_diis:                                       1.00E-01
                        eps_eigval:                                     1.00E-05
                        --------------------------------------------------------
                        level_shift [a.u.]:                             0.000000
                        --------------------------------------------------------
                        Outer loop SCF in use 
                        No variables optimised in outer loop
                        eps_scf                                         1.00E-06
                        max_scf                                               50
                        No outer loop optimization
                        step_size                                       5.00E-01

 BFGS| Use rational function optimization for step estimation:                NO
 BFGS| Use model Hessian for initial guess:                                  YES
 BFGS| Restart Hessian:                                                       NO
 BFGS| Trust radius:                                                       0.472

 *******************************************************************************
 ***                     STARTING GEOMETRY OPTIMIZATION                      ***
 ***                                   BFGS                                  ***
 *******************************************************************************

 Number of electrons:                                                       3246
 Number of occupied orbitals:                                               1623
 Number of molecular orbitals:                                              1623

 Number of orbital functions:                                               8037
 Number of independent orbital functions:                                   8037

 Extrapolation method: initial_guess

 *** WARNING in qs_initial_guess.F:305 :: User requested to restart the   ***
 *** wavefunction from the file named: intE09_aq-RESTART.wfn. This file   ***
 *** does not exist. Please check the existence of the file or change     ***
 *** properly the value of the keyword WFN_RESTART_FILE_NAME. Calculation ***
 *** continues using ATOMIC GUESS.                                        ***



 SCF WAVEFUNCTION OPTIMIZATION

  ----------------------------------- OT ---------------------------------------
  Minimizer      : CG                  : conjugate gradient
  Preconditioner : FULL_ALL            : diagonalization, state selective
  Precond_solver : DEFAULT
  Line search    : 2PNT                : 2 energies, one gradient
  stepsize       :    0.15000000                  energy_gap     :    0.00100000
  eps_taylor     :   0.10000E-15                  max_taylor     :             4
  ----------------------------------- OT ---------------------------------------

  Step     Update method      Time    Convergence         Total energy    Change
  ------------------------------------------------------------------------------
     1 OT CG       0.15E+00   22.3     0.01602287     -7069.7304644721 -7.07E+03
     2 OT LS       0.66E-01    2.4                    -7002.9366781827
     3 OT CG       0.66E-01    5.6     0.06669988     -7007.7977213297  6.19E+01
     4 OT LS       0.30E-01    2.4                    -6601.7368013198
     5 OT CG       0.30E-01    5.6     0.08882904     -6852.1660537860  1.56E+02
     6 OT LS       0.16E-01    2.4                    -6928.0382080175
     7 OT CG       0.16E-01    5.5     0.04451629     -7012.2068738698 -1.60E+02
     8 OT LS       0.94E-02    2.4                    -7068.2786926079
     9 OT CG       0.94E-02    5.6     0.01482220     -7099.4461878668 -8.72E+01
    10 OT LS       0.31E-01    2.4                    -7119.2278406614
    11 OT CG       0.31E-01    5.6     0.01533369     -7134.3297123375 -3.49E+01
    12 OT LS       0.34E-01    2.4                    -7177.3130071792
    13 OT CG       0.34E-01    5.6     0.01499952     -7177.0504365787 -4.27E+01
    14 OT LS       0.19E-01    2.4                    -7187.6405876625
    15 OT CG       0.19E-01    5.6     0.00940710     -7197.5103398793 -2.05E+01
    16 OT LS       0.57E-01    2.4                    -7213.2655643103
    17 OT CG       0.57E-01    5.5     0.01857659     -7205.5239338055 -8.01E+00
    18 OT LS       0.26E-01    2.4                    -7181.3351624728
    19 OT CG       0.26E-01    5.5     0.01532182     -7208.4445216613 -2.92E+00
    20 OT LS       0.12E-01    2.4                    -7206.2929434123
    21 OT CG       0.12E-01    5.5     0.00864812     -7220.3189656595 -1.19E+01
    22 OT LS       0.22E-01    2.4                    -7228.8313669674
    23 OT CG       0.22E-01    5.6     0.00801279     -7230.4758924843 -1.02E+01
    24 OT LS       0.27E-01    2.4                    -7240.5007986788
    25 OT CG       0.27E-01    5.6     0.00735981     -7240.4234095973 -9.95E+00
    26 OT LS       0.24E-01    2.4                    -7248.1701755047
    27 OT CG       0.24E-01    5.5     0.00306902     -7248.0257601308 -7.60E+00
    28 OT LS       0.84E-01    2.4                    -7250.6702308193
    29 OT CG       0.84E-01    5.6     0.00395216     -7252.8005626212 -4.77E+00
    30 OT LS       0.47E-01    2.4                    -7254.0880641213
    31 OT CG       0.47E-01    5.6     0.00456705     -7256.3474145714 -3.55E+00
    32 OT LS       0.33E-01    2.4                    -7260.0369758217
    33 OT CG       0.33E-01    5.6     0.00282448     -7260.3776830129 -4.03E+00
    34 OT LS       0.33E-01    2.4                    -7262.1441067700
    35 OT CG       0.33E-01    5.6     0.00269240     -7262.1445126919 -1.77E+00
    36 OT LS       0.55E-01    2.4                    -7264.2605314008
    37 OT CG       0.55E-01    5.6     0.00280591     -7264.6585015553 -2.51E+00
    38 OT LS       0.43E-01    2.4                    -7266.6411026392
    39 OT CG       0.43E-01    5.6     0.00216846     -7266.7130853834 -2.05E+00
    40 OT LS       0.85E-01    2.4                    -7268.7569401661
    41 OT CG       0.85E-01    5.6     0.00287049     -7269.1368670106 -2.42E+00
    42 OT LS       0.39E-01    2.4                    -7268.5381325476
    43 OT CG       0.39E-01    5.6     0.00285573     -7270.7900399383 -1.65E+00
    44 OT LS       0.35E-01    2.4                    -7272.6249630352
    45 OT CG       0.35E-01    5.6     0.00170708     -7272.6192296617 -1.83E+00
    46 OT LS       0.79E-01    2.4                    -7273.7034755427
    47 OT CG       0.79E-01    5.6     0.00177909     -7274.1278226826 -1.51E+00
    48 OT LS       0.78E-01    2.4                    -7275.5713493460
    49 OT CG       0.78E-01    5.6     0.00183765     -7275.5704993013 -1.44E+00
    50 OT LS       0.82E-01    2.4                    -7277.3913754924
    51 OT CG       0.82E-01    5.6     0.00162642     -7277.4038214106 -1.83E+00
    52 OT LS       0.77E-01    2.4                    -7278.7856869647
    53 OT CG       0.77E-01    5.6     0.00180717     -7278.8016176492 -1.40E+00
    54 OT LS       0.70E-01    2.4                    -7280.2090498657
    55 OT CG       0.70E-01    5.6     0.00181931     -7280.2209544643 -1.42E+00
    56 OT LS       0.64E-01    2.4                    -7281.5953296826
    57 OT CG       0.64E-01    5.6     0.00143353     -7281.5891021060 -1.37E+00
    58 OT LS       0.94E-01    2.4                    -7282.7862204823
    59 OT CG       0.94E-01    5.6     0.00137825     -7282.8917852981 -1.30E+00
    60 OT LS       0.89E-01    2.4                    -7283.9198950354
    61 OT CG       0.89E-01    5.5     0.00161000     -7283.9222839195 -1.03E+00
    62 OT LS       0.71E-01    2.4                    -7285.0520262907
    63 OT CG       0.71E-01    5.5     0.00126864     -7285.1069959855 -1.18E+00
    64 OT LS       0.94E-01    2.4                    -7286.0532271747
    65 OT CG       0.94E-01    5.6     0.00125647     -7286.0934005396 -9.86E-01
    66 OT LS       0.82E-01    2.4                    -7286.8741581940
    67 OT CG       0.82E-01    5.6     0.00129448     -7286.8902051557 -7.97E-01
    68 OT LS       0.79E-01    2.4                    -7287.7532900243
    69 OT CG       0.79E-01    5.5     0.00103742     -7287.7521062924 -8.62E-01
    70 OT LS       0.10E+00    2.4                    -7288.4682905886
    71 OT CG       0.10E+00    5.6     0.00109911     -7288.5073504884 -7.55E-01
    72 OT LS       0.75E-01    2.4                    -7288.9866083171
    73 OT CG       0.75E-01    5.6     0.00111316     -7289.0854841233 -5.78E-01
    74 OT LS       0.83E-01    2.4                    -7289.7467832982
    75 OT CG       0.83E-01    5.5     0.00096802     -7289.7541504821 -6.69E-01
    76 OT LS       0.90E-01    2.4                    -7290.3060409344
    77 OT CG       0.90E-01    5.6     0.00093445     -7290.3090342462 -5.55E-01
    78 OT LS       0.96E-01    2.4                    -7290.8499555994
    79 OT CG       0.96E-01    5.6     0.00093466     -7290.8514427003 -5.42E-01
    80 OT LS       0.92E-01    2.4                    -7291.3700782805
    81 OT CG       0.92E-01    5.6     0.00094489     -7291.3704517148 -5.19E-01
    82 OT LS       0.77E-01    2.4                    -7291.8037781020
    83 OT CG       0.77E-01    5.6     0.00082954     -7291.8209990112 -4.51E-01
    84 OT LS       0.95E-01    2.4                    -7292.2352070421
    85 OT CG       0.95E-01    5.6     0.00083013     -7292.2488340111 -4.28E-01
    86 OT LS       0.86E-01    2.4                    -7292.6250370692
    87 OT CG       0.86E-01    5.6     0.00082587     -7292.6297584288 -3.81E-01
    88 OT LS       0.90E-01    2.4                    -7293.0265417493
    89 OT CG       0.90E-01    5.6     0.00076553     -7293.0274521865 -3.98E-01
    90 OT LS       0.84E-01    2.4                    -7293.3519107831
    91 OT CG       0.84E-01    5.5     0.00073294     -7293.3530964989 -3.26E-01
    92 OT LS       0.89E-01    2.4                    -7293.6672534709
    93 OT CG       0.89E-01    5.5     0.00071945     -7293.6680401684 -3.15E-01
    94 OT LS       0.89E-01    2.4                    -7293.9654845440
    95 OT CG       0.89E-01    5.5     0.00070820     -7293.9655303128 -2.97E-01
    96 OT LS       0.90E-01    2.4                    -7294.2560848257
    97 OT CG       0.90E-01    5.5     0.00065284     -7294.2561125772 -2.91E-01
    98 OT LS       0.90E-01    2.4                    -7294.5058037490
    99 OT CG       0.90E-01    5.5     0.00063747     -7294.5058049380 -2.50E-01
   100 OT LS       0.89E-01    2.4                    -7294.7422529478
   101 OT CG       0.89E-01    5.6     0.00062509     -7294.7422782808 -2.36E-01
   102 OT LS       0.88E-01    2.4                    -7294.9663305173
   103 OT CG       0.88E-01    5.6     0.00061165     -7294.9663671908 -2.24E-01
   104 OT LS       0.88E-01    2.4                    -7295.1799250855
   105 OT CG       0.88E-01    5.6     0.00056894     -7295.1799244653 -2.14E-01
   106 OT LS       0.91E-01    2.4                    -7295.3706656283
   107 OT CG       0.91E-01    5.6     0.00055321     -7295.3708730983 -1.91E-01
   108 OT LS       0.90E-01    2.4                    -7295.5507523047
   109 OT CG       0.90E-01    5.6     0.00054023     -7295.5507599950 -1.80E-01
   110 OT LS       0.91E-01    2.4                    -7295.7244435364
   111 OT CG       0.91E-01    5.6     0.00052604     -7295.7244668266 -1.74E-01
   112 OT LS       0.91E-01    2.4                    -7295.8891270713
   113 OT CG       0.91E-01    5.5     0.00049913     -7295.8891249724 -1.65E-01
   114 OT LS       0.92E-01    2.4                    -7296.0372937874
   115 OT CG       0.92E-01    5.6     0.00048313     -7296.0372941925 -1.48E-01
   116 OT LS       0.90E-01    2.4                    -7296.1748897440
   117 OT CG       0.90E-01    5.6     0.00047371     -7296.1749032661 -1.38E-01
   118 OT LS       0.90E-01    2.4                    -7296.3071632256
   119 OT CG       0.90E-01    5.6     0.00045860     -7296.3071635048 -1.32E-01
   120 OT LS       0.93E-01    2.4                    -7296.4344104489
   121 OT CG       0.93E-01    5.5     0.00043898     -7296.4344976953 -1.27E-01
   122 OT LS       0.93E-01    2.4                    -7296.5513927682
   123 OT CG       0.93E-01    5.6     0.00042333     -7296.5513938091 -1.17E-01
   124 OT LS       0.93E-01    2.4                    -7296.6594826631
   125 OT CG       0.93E-01    5.6     0.00041559     -7296.6594855839 -1.08E-01
   126 OT LS       0.91E-01    2.5                    -7296.7622339851
   127 OT CG       0.91E-01    5.6     0.00040608     -7296.7622560065 -1.03E-01
   128 OT LS       0.93E-01    2.4                    -7296.8626089812
   129 OT CG       0.93E-01    5.6     0.00039337     -7296.8626573974 -1.00E-01
   130 OT LS       0.93E-01    2.4                    -7296.9560760696
   131 OT CG       0.93E-01    5.6     0.00038084     -7296.9560822103 -9.34E-02
   132 OT LS       0.92E-01    2.4                    -7297.0429005172
   133 OT CG       0.92E-01    5.6     0.00037312     -7297.0429055708 -8.68E-02
   134 OT LS       0.91E-01    2.4                    -7297.1257615463
   135 OT CG       0.91E-01    5.6     0.00036279     -7297.1257643029 -8.29E-02
   136 OT LS       0.95E-01    2.4                    -7297.2071977266
   137 OT CG       0.95E-01    5.6     0.00035327     -7297.2073213320 -8.16E-02
   138 OT LS       0.94E-01    2.4                    -7297.2841147132
   139 OT CG       0.94E-01    5.6     0.00034393     -7297.2841191510 -7.68E-02
   140 OT LS       0.93E-01    2.4                    -7297.3555430143
   141 OT CG       0.93E-01    5.6     0.00033628     -7297.3555661859 -7.14E-02
   142 OT LS       0.92E-01    2.4                    -7297.4235999405
   143 OT CG       0.92E-01    5.6     0.00032782     -7297.4236006535 -6.80E-02
   144 OT LS       0.93E-01    2.4                    -7297.4891567234
   145 OT CG       0.93E-01    5.6     0.00031973     -7297.4891689045 -6.56E-02
   146 OT LS       0.94E-01    2.4                    -7297.5519875463
   147 OT CG       0.94E-01    5.6     0.00031053     -7297.5519899801 -6.28E-02
   148 OT LS       0.93E-01    2.4                    -7297.6107888140
   149 OT CG       0.93E-01    5.6     0.00030247     -7297.6107920907 -5.88E-02
   150 OT LS       0.94E-01    2.4                    -7297.6667394253
   151 OT CG       0.94E-01    5.6     0.00029453     -7297.6667402424 -5.59E-02
   152 OT LS       0.95E-01    2.4                    -7297.7203698632
   153 OT CG       0.95E-01    5.6     0.00028682     -7297.7203764743 -5.36E-02
   154 OT LS       0.96E-01    2.4                    -7297.7718272124
   155 OT CG       0.96E-01    5.6     0.00028106     -7297.7718330136 -5.15E-02
   156 OT LS       0.93E-01    2.4                    -7297.8199956266
   157 OT CG       0.93E-01    5.6     0.00027523     -7297.8200272598 -4.82E-02
   158 OT LS       0.92E-01    2.4                    -7297.8655345861
   159 OT CG       0.92E-01    5.6     0.00026838     -7297.8655442798 -4.55E-02
   160 OT LS       0.94E-01    2.4                    -7297.9094537261
   161 OT CG       0.94E-01    5.5     0.00025993     -7297.9094638775 -4.39E-02
   162 OT LS       0.96E-01    2.4                    -7297.9517695198
   163 OT CG       0.96E-01    5.6     0.00025565     -7297.9517992058 -4.23E-02
   164 OT LS       0.94E-01    2.4                    -7297.9918566347
   165 OT CG       0.94E-01    5.6     0.00025021     -7297.9918771048 -4.01E-02
   166 OT LS       0.94E-01    2.4                    -7298.0304448365
   167 OT CG       0.94E-01    5.5     0.00024413     -7298.0304457427 -3.86E-02
   168 OT LS       0.96E-01    2.4                    -7298.0676030414
   169 OT CG       0.96E-01    5.5     0.00023827     -7298.0676091631 -3.72E-02
   170 OT LS       0.96E-01    2.4                    -7298.1032330438
   171 OT CG       0.96E-01    5.6     0.00023505     -7298.1032343445 -3.56E-02
   172 OT LS       0.95E-01    2.4                    -7298.1373520101
   173 OT CG       0.95E-01    5.6     0.00023052     -7298.1373616540 -3.41E-02
   174 OT LS       0.95E-01    2.4                    -7298.1701674362
   175 OT CG       0.95E-01    5.6     0.00022569     -7298.1701674138 -3.28E-02
   176 OT LS       0.95E-01    2.4                    -7298.2018391717
   177 OT CG       0.95E-01    5.6     0.00022047     -7298.2018411402 -3.17E-02
   178 OT LS       0.96E-01    2.4                    -7298.2323842039
   179 OT CG       0.96E-01    5.5     0.00021628     -7298.2323876603 -3.05E-02
   180 OT LS       0.96E-01    2.4                    -7298.2618384342
   181 OT CG       0.96E-01    5.6     0.00021301     -7298.2618384646 -2.95E-02
   182 OT LS       0.95E-01    2.4                    -7298.2900341588
   183 OT CG       0.95E-01    5.6     0.00020878     -7298.2900391510 -2.82E-02
   184 OT LS       0.96E-01    2.4                    -7298.3173045706
   185 OT CG       0.96E-01    5.6     0.00020433     -7298.3173059073 -2.73E-02
   186 OT LS       0.96E-01    2.4                    -7298.3435034644
   187 OT CG       0.96E-01    5.6     0.00020138     -7298.3435037754 -2.62E-02
   188 OT LS       0.96E-01    2.4                    -7298.3688297292
   189 OT CG       0.96E-01    5.6     0.00019835     -7298.3688304185 -2.53E-02
   190 OT LS       0.95E-01    2.4                    -7298.3933008245
   191 OT CG       0.95E-01    5.6     0.00019522     -7298.3933013438 -2.45E-02
   192 OT LS       0.95E-01    2.4                    -7298.4169758439
   193 OT CG       0.95E-01    5.6     0.00019129     -7298.4169758492 -2.37E-02
   194 OT LS       0.96E-01    2.4                    -7298.4398830156
   195 OT CG       0.96E-01    5.6     0.00018768     -7298.4398846190 -2.29E-02
   196 OT LS       0.97E-01    2.4                    -7298.4621117290
   197 OT CG       0.97E-01    5.6     0.00018475     -7298.4621130347 -2.22E-02
   198 OT LS       0.97E-01    2.4                    -7298.4836569334
   199 OT CG       0.97E-01    5.5     0.00018191     -7298.4836569402 -2.15E-02
   200 OT LS       0.96E-01    2.4                    -7298.5044072739
   201 OT CG       0.96E-01    5.6     0.00017909     -7298.5044081369 -2.08E-02
   202 OT LS       0.96E-01    2.4                    -7298.5243929912
   203 OT CG       0.96E-01    5.6     0.00017582     -7298.5243936607 -2.00E-02
   204 OT LS       0.96E-01    2.4                    -7298.5437421274
   205 OT CG       0.96E-01    5.6     0.00017307     -7298.5437425105 -1.93E-02
   206 OT LS       0.96E-01    2.4                    -7298.5624916454
   207 OT CG       0.96E-01    5.6     0.00017019     -7298.5624916495 -1.87E-02
   208 OT LS       0.96E-01    2.4                    -7298.5807125028
   209 OT CG       0.96E-01    5.5     0.00016713     -7298.5807129314 -1.82E-02
   210 OT LS       0.96E-01    2.5                    -7298.5982372412
   211 OT CG       0.96E-01    5.5     0.00016414     -7298.5982373339 -1.75E-02
   212 OT LS       0.97E-01    2.4                    -7298.6151869652
   213 OT CG       0.97E-01    5.6     0.00016152     -7298.6151871180 -1.69E-02
   214 OT LS       0.96E-01    2.4                    -7298.6316087469
   215 OT CG       0.96E-01    5.6     0.00015924     -7298.6316087448 -1.64E-02
   216 OT LS       0.96E-01    2.4                    -7298.6474797149
   217 OT CG       0.96E-01    5.6     0.00015679     -7298.6474802734 -1.59E-02
   218 OT LS       0.96E-01    2.4                    -7298.6628121096
   219 OT CG       0.96E-01    5.6     0.00015427     -7298.6628122875 -1.53E-02
   220 OT LS       0.95E-01    2.4                    -7298.6775469987
   221 OT CG       0.95E-01    5.6     0.00015194     -7298.6775477370 -1.47E-02
   222 OT LS       0.96E-01    2.4                    -7298.6919291143
   223 OT CG       0.96E-01    5.6     0.00014866     -7298.6919296349 -1.44E-02
   224 OT LS       0.98E-01    2.4                    -7298.7059898397
   225 OT CG       0.98E-01    5.6     0.00014629     -7298.7059960492 -1.41E-02
   226 OT LS       0.97E-01    2.4                    -7298.7195887669
   227 OT CG       0.97E-01    5.6     0.00014365     -7298.7195888250 -1.36E-02
   228 OT LS       0.97E-01    2.4                    -7298.7326768812
   229 OT CG       0.97E-01    5.6     0.00014157     -7298.7326769028 -1.31E-02
   230 OT LS       0.97E-01    2.4                    -7298.7453444730
   231 OT CG       0.97E-01    5.6     0.00013937     -7298.7453446139 -1.27E-02
   232 OT LS       0.97E-01    2.4                    -7298.7576481012
   233 OT CG       0.97E-01    5.6     0.00013732     -7298.7576481437 -1.23E-02
   234 OT LS       0.97E-01    2.4                    -7298.7695554899
   235 OT CG       0.97E-01    5.6     0.00013551     -7298.7695556069 -1.19E-02
   236 OT LS       0.97E-01    2.4                    -7298.7811163245
   237 OT CG       0.97E-01    5.6     0.00013356     -7298.7811164262 -1.16E-02
   238 OT LS       0.97E-01    2.4                    -7298.7923939515
   239 OT CG       0.97E-01    5.6     0.00013166     -7298.7923941634 -1.13E-02
   240 OT LS       0.98E-01    2.4                    -7298.8034342402
   241 OT CG       0.98E-01    5.6     0.00013003     -7298.8034348162 -1.10E-02
   242 OT LS       0.97E-01    2.4                    -7298.8141866062
   243 OT CG       0.97E-01    5.6     0.00012846     -7298.8141866371 -1.08E-02
   244 OT LS       0.97E-01    2.4                    -7298.8246638311
   245 OT CG       0.97E-01    5.6     0.00012658     -7298.8246638627 -1.05E-02
   246 OT LS       0.98E-01    2.4                    -7298.8348860749
   247 OT CG       0.98E-01    5.6     0.00012496     -7298.8348863295 -1.02E-02
   248 OT LS       0.98E-01    2.4                    -7298.8448328710
   249 OT CG       0.98E-01    5.6     0.00012360     -7298.8448328952 -9.95E-03
   250 OT LS       0.97E-01    2.4                    -7298.8544967408
   251 OT CG       0.97E-01    5.6     0.00012212     -7298.8544972248 -9.66E-03
   252 OT LS       0.97E-01    2.4                    -7298.8639547282
   253 OT CG       0.97E-01    5.6     0.00012078     -7298.8639547835 -9.46E-03
   254 OT LS       0.96E-01    2.4                    -7298.8731068273
   255 OT CG       0.96E-01    5.6     0.00011960     -7298.8731078972 -9.15E-03
   256 OT LS       0.96E-01    2.4                    -7298.8820860057
   257 OT CG       0.96E-01    5.6     0.00011819     -7298.8820860070 -8.98E-03
   258 OT LS       0.96E-01    2.4                    -7298.8908622276
   259 OT CG       0.96E-01    5.6     0.00011682     -7298.8908622335 -8.78E-03
   260 OT LS       0.97E-01    2.4                    -7298.8994852652
   261 OT CG       0.97E-01    5.6     0.00011547     -7298.8994855423 -8.62E-03
   262 OT LS       0.97E-01    2.4                    -7298.9079029322
   263 OT CG       0.97E-01    5.6     0.00011401     -7298.9079029383 -8.42E-03
   264 OT LS       0.97E-01    2.4                    -7298.9161596062
   265 OT CG       0.97E-01    5.5     0.00011258     -7298.9161599134 -8.26E-03
   266 OT LS       0.98E-01    2.4                    -7298.9242341501
   267 OT CG       0.98E-01    5.6     0.00011152     -7298.9242342199 -8.07E-03
   268 OT LS       0.97E-01    2.4                    -7298.9321075423
   269 OT CG       0.97E-01    5.5     0.00011028     -7298.9321078820 -7.87E-03
   270 OT LS       0.97E-01    2.4                    -7298.9398249246
   271 OT CG       0.97E-01    5.6     0.00010880     -7298.9398249626 -7.72E-03
   272 OT LS       0.98E-01    2.4                    -7298.9473832414
   273 OT CG       0.98E-01    5.6     0.00010776     -7298.9473835389 -7.56E-03
   274 OT LS       0.97E-01    2.4                    -7298.9547378503
   275 OT CG       0.97E-01    5.6     0.00010641     -7298.9547383279 -7.35E-03
   276 OT LS       0.97E-01    2.4                    -7298.9619391543
   277 OT CG       0.97E-01    5.6     0.00010506     -7298.9619392536 -7.20E-03
   278 OT LS       0.98E-01    2.4                    -7298.9689702481
   279 OT CG       0.98E-01    5.5     0.00010361     -7298.9689702669 -7.03E-03
   280 OT LS       0.98E-01    2.4                    -7298.9758201276
   281 OT CG       0.98E-01    5.6     0.00010242     -7298.9758201509 -6.85E-03
   282 OT LS       0.97E-01    2.4                    -7298.9824775883
   283 OT CG       0.97E-01    5.5     0.00010130     -7298.9824777846 -6.66E-03
   284 OT LS       0.97E-01    2.4                    -7298.9889561385
   285 OT CG       0.97E-01    5.6     0.00010010     -7298.9889563373 -6.48E-03
   286 OT LS       0.97E-01    2.4                    -7298.9953164489
   287 OT CG       0.97E-01    5.5     0.00009865     -7298.9953166299 -6.36E-03
   288 OT LS       0.98E-01    2.4                    -7299.0015545803
   289 OT CG       0.98E-01    5.6     0.00009751     -7299.0015552008 -6.24E-03
   290 OT LS       0.99E-01    2.4                    -7299.0076646468
   291 OT CG       0.99E-01    5.5     0.00009658     -7299.0076646832 -6.11E-03
   292 OT LS       0.98E-01    2.4                    -7299.0136026874
   293 OT CG       0.98E-01    5.5     0.00009578     -7299.0136032169 -5.94E-03
   294 OT LS       0.97E-01    2.4                    -7299.0194129921
   295 OT CG       0.97E-01    5.5     0.00009469     -7299.0194131687 -5.81E-03
   296 OT LS       0.98E-01    2.5                    -7299.0251148568
   297 OT CG       0.98E-01    5.6     0.00009366     -7299.0251149511 -5.70E-03
   298 OT LS       0.97E-01    2.4                    -7299.0306829005
   299 OT CG       0.97E-01    5.6     0.00009260     -7299.0306829179 -5.57E-03
   300 OT LS       0.97E-01    2.4                    -7299.0361263340
   301 OT CG       0.97E-01    5.6     0.00009185     -7299.0361263336 -5.44E-03
   302 OT LS       0.97E-01    2.4                    -7299.0414583683
   303 OT CG       0.97E-01    5.6     0.00009074     -7299.0414584822 -5.33E-03
   304 OT LS       0.98E-01    2.4                    -7299.0466941098
   305 OT CG       0.98E-01    5.6     0.00008976     -7299.0466942947 -5.24E-03
   306 OT LS       0.98E-01    2.5                    -7299.0518325282
   307 OT CG       0.98E-01    7.5     0.00008878     -7299.0518325798 -5.14E-03
   308 OT LS       0.98E-01    2.4                    -7299.0568597695
   309 OT CG       0.98E-01    5.6     0.00008801     -7299.0568597692 -5.03E-03
   310 OT LS       0.98E-01    2.4                    -7299.0617915183
   311 OT CG       0.98E-01    5.6     0.00008738     -7299.0617915394 -4.93E-03
   312 OT LS       0.97E-01    2.4                    -7299.0666023028
   313 OT CG       0.97E-01    5.6     0.00008666     -7299.0666028316 -4.81E-03
   314 OT LS       0.97E-01    2.4                    -7299.0713469939
   315 OT CG       0.97E-01    5.6     0.00008581     -7299.0713470251 -4.74E-03
   316 OT LS       0.97E-01    2.4                    -7299.0760150778
   317 OT CG       0.97E-01    5.6     0.00008489     -7299.0760151412 -4.67E-03
   318 OT LS       0.98E-01    2.4                    -7299.0806113159
   319 OT CG       0.98E-01    5.6     0.00008436     -7299.0806114772 -4.60E-03
   320 OT LS       0.97E-01    2.4                    -7299.0851259940
   321 OT CG       0.97E-01    5.5     0.00008344     -7299.0851261405 -4.51E-03
   322 OT LS       0.98E-01    2.4                    -7299.0895653223
   323 OT CG       0.98E-01    5.6     0.00008257     -7299.0895654351 -4.44E-03
   324 OT LS       0.98E-01    2.4                    -7299.0939155718
   325 OT CG       0.98E-01    5.6     0.00008168     -7299.0939155746 -4.35E-03
   326 OT LS       0.98E-01    2.4                    -7299.0981726360
   327 OT CG       0.98E-01    5.6     0.00008091     -7299.0981726357 -4.26E-03
   328 OT LS       0.98E-01    2.4                    -7299.1023434679
   329 OT CG       0.98E-01    5.6     0.00008010     -7299.1023434826 -4.17E-03
   330 OT LS       0.98E-01    2.4                    -7299.1064352478
   331 OT CG       0.98E-01    5.6     0.00007933     -7299.1064352519 -4.09E-03
   332 OT LS       0.98E-01    2.4                    -7299.1104478536
   333 OT CG       0.98E-01    5.6     0.00007848     -7299.1104478536 -4.01E-03
   334 OT LS       0.98E-01    2.4                    -7299.1143815621
   335 OT CG       0.98E-01    5.6     0.00007773     -7299.1143815729 -3.93E-03
   336 OT LS       0.98E-01    2.4                    -7299.1182478477
   337 OT CG       0.98E-01    5.5     0.00007688     -7299.1182478616 -3.87E-03
   338 OT LS       0.98E-01    2.4                    -7299.1220379450
   339 OT CG       0.98E-01    5.6     0.00007610     -7299.1220379579 -3.79E-03
   340 OT LS       0.98E-01    2.4                    -7299.1257443467
   341 OT CG       0.98E-01    5.5     0.00007539     -7299.1257443600 -3.71E-03
   342 OT LS       0.97E-01    2.4                    -7299.1293528335
   343 OT CG       0.97E-01    5.5     0.00007460     -7299.1293530537 -3.61E-03
   344 OT LS       0.97E-01    2.4                    -7299.1328785123
   345 OT CG       0.97E-01    5.5     0.00007392     -7299.1328785323 -3.53E-03
   346 OT LS       0.97E-01    2.4                    -7299.1363382302
   347 OT CG       0.97E-01    5.6     0.00007308     -7299.1363382312 -3.46E-03
   348 OT LS       0.97E-01    2.4                    -7299.1397272376
   349 OT CG       0.97E-01    5.5     0.00007226     -7299.1397272541 -3.39E-03
   350 OT LS       0.98E-01    2.4                    -7299.1430556021
   351 OT CG       0.98E-01    5.6     0.00007168     -7299.1430556671 -3.33E-03
   352 OT LS       0.98E-01    2.4                    -7299.1463344484
   353 OT CG       0.98E-01    5.5     0.00007091     -7299.1463344531 -3.28E-03
   354 OT LS       0.98E-01    2.4                    -7299.1495545930
   355 OT CG       0.98E-01    5.6     0.00007042     -7299.1495546303 -3.22E-03
   356 OT LS       0.98E-01    2.4                    -7299.1527194086
   357 OT CG       0.98E-01    5.5     0.00006965     -7299.1527194491 -3.16E-03
   358 OT LS       0.98E-01    2.4                    -7299.1558124054
   359 OT CG       0.98E-01    5.5     0.00006914     -7299.1558124075 -3.09E-03
   360 OT LS       0.97E-01    2.4                    -7299.1588363368
   361 OT CG       0.97E-01    5.5     0.00006853     -7299.1588365155 -3.02E-03
   362 OT LS       0.97E-01    2.4                    -7299.1618113233
   363 OT CG       0.97E-01    5.6     0.00006780     -7299.1618113265 -2.97E-03
   364 OT LS       0.98E-01    2.4                    -7299.1647410399
   365 OT CG       0.98E-01    5.5     0.00006721     -7299.1647411523 -2.93E-03
   366 OT LS       0.98E-01    2.4                    -7299.1676193238
   367 OT CG       0.98E-01    5.6     0.00006665     -7299.1676193240 -2.88E-03
   368 OT LS       0.98E-01    2.4                    -7299.1704542638
   369 OT CG       0.98E-01    5.6     0.00006610     -7299.1704542723 -2.83E-03
   370 OT LS       0.98E-01    2.4                    -7299.1732476943
   371 OT CG       0.98E-01    5.5     0.00006570     -7299.1732477021 -2.79E-03
   372 OT LS       0.98E-01    2.4                    -7299.1759980823
   373 OT CG       0.98E-01    5.5     0.00006523     -7299.1759981184 -2.75E-03
   374 OT LS       0.98E-01    2.4                    -7299.1787147895
   375 OT CG       0.98E-01    5.6     0.00006468     -7299.1787148002 -2.72E-03
   376 OT LS       0.98E-01    2.4                    -7299.1813919174
   377 OT CG       0.98E-01    5.6     0.00006434     -7299.1813919303 -2.68E-03
   378 OT LS       0.97E-01    2.5                    -7299.1840168420
   379 OT CG       0.97E-01    5.5     0.00006400     -7299.1840170454 -2.63E-03
   380 OT LS       0.97E-01    2.4                    -7299.1866095615
   381 OT CG       0.97E-01    5.5     0.00006333     -7299.1866095718 -2.59E-03
   382 OT LS       0.98E-01    2.4                    -7299.1891776221
   383 OT CG       0.98E-01    5.6     0.00006286     -7299.1891779471 -2.57E-03
   384 OT LS       0.98E-01    2.4                    -7299.1917119773
   385 OT CG       0.98E-01    5.6     0.00006244     -7299.1917119841 -2.53E-03
   386 OT LS       0.98E-01    2.4                    -7299.1942076698
   387 OT CG       0.98E-01    5.5     0.00006221     -7299.1942076771 -2.50E-03
   388 OT LS       0.97E-01    2.4                    -7299.1966679541
   389 OT CG       0.97E-01    5.5     0.00006179     -7299.1966680725 -2.46E-03
   390 OT LS       0.98E-01    2.4                    -7299.1991024217
   391 OT CG       0.98E-01    5.5     0.00006124     -7299.1991024386 -2.43E-03
   392 OT LS       0.98E-01    2.4                    -7299.2015091021
   393 OT CG       0.98E-01    5.6     0.00006070     -7299.2015092025 -2.41E-03
   394 OT LS       0.99E-01    2.4                    -7299.2038775278
   395 OT CG       0.99E-01    5.5     0.00006013     -7299.2038775330 -2.37E-03
   396 OT LS       0.99E-01    2.4                    -7299.2062061110
   397 OT CG       0.99E-01    5.6     0.00005970     -7299.2062061223 -2.33E-03
   398 OT LS       0.98E-01    2.4                    -7299.2084939687
   399 OT CG       0.98E-01    5.5     0.00005914     -7299.2084939978 -2.29E-03
   400 OT LS       0.99E-01    2.4                    -7299.2107436575
   401 OT CG       0.99E-01    5.5     0.00005872     -7299.2107436673 -2.25E-03
   402 OT LS       0.98E-01    2.4                    -7299.2129553316
   403 OT CG       0.98E-01    5.6     0.00005820     -7299.2129553492 -2.21E-03
   404 OT LS       0.98E-01    2.4                    -7299.2151308691
   405 OT CG       0.98E-01    5.6     0.00005780     -7299.2151308730 -2.18E-03
   406 OT LS       0.98E-01    2.4                    -7299.2172651935
   407 OT CG       0.98E-01    5.6     0.00005751     -7299.2172652523 -2.13E-03
   408 OT LS       0.97E-01    2.4                    -7299.2193635990
   409 OT CG       0.97E-01    5.6     0.00005706     -7299.2193637061 -2.10E-03
   410 OT LS       0.97E-01    2.4                    -7299.2214294565
   411 OT CG       0.97E-01    5.6     0.00005662     -7299.2214294565 -2.07E-03
   412 OT LS       0.98E-01    2.5                    -7299.2234696657
   413 OT CG       0.98E-01    5.6     0.00005606     -7299.2234696840 -2.04E-03
   414 OT LS       0.98E-01    2.5                    -7299.2254796489
   415 OT CG       0.98E-01    5.6     0.00005564     -7299.2254797006 -2.01E-03
   416 OT LS       0.98E-01    2.4                    -7299.2274621908
   417 OT CG       0.98E-01    5.6     0.00005526     -7299.2274621932 -1.98E-03
   418 OT LS       0.98E-01    2.4                    -7299.2294057667
   419 OT CG       0.98E-01    5.6     0.00005493     -7299.2294058388 -1.94E-03
   420 OT LS       0.97E-01    2.4                    -7299.2313144584
   421 OT CG       0.97E-01    5.5     0.00005456     -7299.2313145318 -1.91E-03
   422 OT LS       0.97E-01    2.4                    -7299.2331998858
   423 OT CG       0.97E-01    5.6     0.00005415     -7299.2331998892 -1.89E-03
   424 OT LS       0.98E-01    2.4                    -7299.2350656242
   425 OT CG       0.98E-01    5.6     0.00005370     -7299.2350656628 -1.87E-03
   426 OT LS       0.98E-01    2.4                    -7299.2369060674
   427 OT CG       0.98E-01    5.6     0.00005334     -7299.2369060820 -1.84E-03
   428 OT LS       0.98E-01    2.4                    -7299.2387249314
   429 OT CG       0.98E-01    5.6     0.00005278     -7299.2387249368 -1.82E-03
   430 OT LS       0.98E-01    2.5                    -7299.2405131443
   431 OT CG       0.98E-01    5.6     0.00005240     -7299.2405131783 -1.79E-03
   432 OT LS       0.98E-01    2.4                    -7299.2422700388
   433 OT CG       0.98E-01    5.5     0.00005196     -7299.2422700620 -1.76E-03
   434 OT LS       0.98E-01    2.4                    -7299.2439969213
   435 OT CG       0.98E-01    5.6     0.00005139     -7299.2439969214 -1.73E-03
   436 OT LS       0.99E-01    2.4                    -7299.2456969468
   437 OT CG       0.99E-01    5.6     0.00005104     -7299.2456970222 -1.70E-03
   438 OT LS       0.98E-01    2.4                    -7299.2473637523
   439 OT CG       0.98E-01    5.6     0.00005063     -7299.2473638201 -1.67E-03
   440 OT LS       0.98E-01    2.4                    -7299.2490046902
   441 OT CG       0.98E-01    5.5     0.00005040     -7299.2490046912 -1.64E-03
   442 OT LS       0.98E-01    2.4                    -7299.2506244404
   443 OT CG       0.98E-01    5.6     0.00004997     -7299.2506244666 -1.62E-03
   444 OT LS       0.98E-01    2.5                    -7299.2522230358
   445 OT CG       0.98E-01    5.6     0.00004962     -7299.2522230623 -1.60E-03
   446 OT LS       0.98E-01    2.5                    -7299.2538009893
   447 OT CG       0.98E-01    5.6     0.00004931     -7299.2538009906 -1.58E-03
   448 OT LS       0.98E-01    2.4                    -7299.2553536132
   449 OT CG       0.98E-01    5.6     0.00004897     -7299.2553536345 -1.55E-03
   450 OT LS       0.98E-01    2.4                    -7299.2568888934
   451 OT CG       0.98E-01    5.6     0.00004855     -7299.2568889042 -1.54E-03
   452 OT LS       0.98E-01    2.4                    -7299.2584002244
   453 OT CG       0.98E-01    5.6     0.00004821     -7299.2584002288 -1.51E-03
   454 OT LS       0.98E-01    2.4                    -7299.2598896280
   455 OT CG       0.98E-01    5.6     0.00004783     -7299.2598896294 -1.49E-03
   456 OT LS       0.99E-01    2.4                    -7299.2613614235
   457 OT CG       0.99E-01    5.5     0.00004753     -7299.2613614492 -1.47E-03
   458 OT LS       0.99E-01    2.5                    -7299.2628134098
   459 OT CG       0.99E-01    5.5     0.00004723     -7299.2628134110 -1.45E-03
   460 OT LS       0.98E-01    2.5                    -7299.2642438284
   461 OT CG       0.98E-01    5.5     0.00004695     -7299.2642438359 -1.43E-03
   462 OT LS       0.98E-01    2.4                    -7299.2656518618
   463 OT CG       0.98E-01    5.5     0.00004677     -7299.2656518861 -1.41E-03
   464 OT LS       0.97E-01    2.4                    -7299.2670369485
   465 OT CG       0.97E-01    5.6     0.00004640     -7299.2670370544 -1.39E-03
   466 OT LS       0.98E-01    2.4                    -7299.2684078824
   467 OT CG       0.98E-01    5.5     0.00004607     -7299.2684079253 -1.37E-03
   468 OT LS       0.98E-01    2.4                    -7299.2697622426
   469 OT CG       0.98E-01    5.6     0.00004572     -7299.2697622496 -1.35E-03
   470 OT LS       0.98E-01    2.4                    -7299.2710942051
   471 OT CG       0.98E-01    5.6     0.00004547     -7299.2710942085 -1.33E-03
   472 OT LS       0.98E-01    2.4                    -7299.2724093088
   473 OT CG       0.98E-01    5.6     0.00004509     -7299.2724093124 -1.32E-03
   474 OT LS       0.98E-01    2.4                    -7299.2737109994
   475 OT CG       0.98E-01    5.6     0.00004487     -7299.2737110496 -1.30E-03
   476 OT LS       0.98E-01    2.4                    -7299.2749921546
   477 OT CG       0.98E-01    5.6     0.00004455     -7299.2749922010 -1.28E-03
   478 OT LS       0.98E-01    2.4                    -7299.2762586343
   479 OT CG       0.98E-01    5.6     0.00004426     -7299.2762586423 -1.27E-03
   480 OT LS       0.98E-01    2.4                    -7299.2775121873
   481 OT CG       0.98E-01    5.5     0.00004393     -7299.2775122002 -1.25E-03
   482 OT LS       0.98E-01    2.4                    -7299.2787484550
   483 OT CG       0.98E-01    5.6     0.00004368     -7299.2787484560 -1.24E-03
   484 OT LS       0.98E-01    2.4                    -7299.2799713234
   485 OT CG       0.98E-01    5.5     0.00004330     -7299.2799713237 -1.22E-03
   486 OT LS       0.99E-01    2.5                    -7299.2811811134
   487 OT CG       0.99E-01    5.6     0.00004309     -7299.2811811665 -1.21E-03
   488 OT LS       0.98E-01    2.4                    -7299.2823730366
   489 OT CG       0.98E-01    5.4     0.00004284     -7299.2823730658 -1.19E-03
   490 OT LS       0.98E-01    2.3                    -7299.2835495804
   491 OT CG       0.98E-01    5.2     0.00004254     -7299.2835495832 -1.18E-03
   492 OT LS       0.99E-01    2.2                    -7299.2847153025
   493 OT CG       0.99E-01    5.1     0.00004234     -7299.2847153273 -1.17E-03
   494 OT LS       0.98E-01    2.2                    -7299.2858607411
   495 OT CG       0.98E-01    5.1     0.00004217     -7299.2858608124 -1.15E-03
   496 OT LS       0.98E-01    2.2                    -7299.2869942167
   497 OT CG       0.98E-01    5.1     0.00004185     -7299.2869942237 -1.13E-03
   498 OT LS       0.98E-01    2.2                    -7299.2881160074
   499 OT CG       0.98E-01    5.1     0.00004153     -7299.2881160345 -1.12E-03
   500 OT LS       0.99E-01    2.2                    -7299.2892260562

  Leaving inner SCF loop after reaching   500 steps.


  Electronic density on regular grids:      -3245.9999971138        0.0000028862
  Core density on regular grids:             3245.9999997995       -0.0000002005
  Total charge density on r-space grids:        0.0000026858
  Total charge density g-space grids:           0.0000026858

  Overlap energy of the core charge distribution:               0.00001402254635
  Self energy of the core charge distribution:             -18773.88682706069812
  Core Hamiltonian energy:                                   5325.67839152707347
  Hartree energy:                                            7855.36917112033279
  Exchange-correlation energy:                              -1704.33570798069604
  Dispersion energy:                                           -2.11426768477741

  Total energy:                                             -7299.28922605622029

  outer SCF iter =    1 RMS gradient =   0.42E-04 energy =      -7299.2892260562

  ----------------------------------- OT ---------------------------------------
  Minimizer      : CG                  : conjugate gradient
  Preconditioner : FULL_ALL            : diagonalization, state selective
  Precond_solver : DEFAULT
  Line search    : 2PNT                : 2 energies, one gradient
  stepsize       :    0.15000000                  energy_gap     :    0.00100000
  eps_taylor     :   0.10000E-15                  max_taylor     :             4
  ----------------------------------- OT ---------------------------------------

  Step     Update method      Time    Convergence         Total energy    Change
  ------------------------------------------------------------------------------
     1 OT CG       0.15E+00   24.3     0.00028333     -7299.2892260802 -1.11E-03
     2 OT LS       0.25E+00    2.0                    -7299.3990128463
     3 OT CG       0.25E+00    5.0     0.00001624     -7299.4196156594 -1.30E-01
     4 OT LS       0.67E-01    2.0                    -7299.4188770774
     5 OT CG       0.67E-01    5.0     0.00000508     -7299.4197309674 -1.15E-04
     6 OT LS       0.68E-01    2.0                    -7299.4197425332
     7 OT CG       0.68E-01    5.0     0.00000164     -7299.4197425394 -1.16E-05
     8 OT LS       0.11E+00    2.0                    -7299.4197442260
     9 OT CG       0.11E+00    5.0     0.00000065     -7299.4197445560 -2.02E-06

  *** SCF run converged in     9 steps ***


  Electronic density on regular grids:      -3245.9999971137        0.0000028863
  Core density on regular grids:             3245.9999997995       -0.0000002005
  Total charge density on r-space grids:        0.0000026858
  Total charge density g-space grids:           0.0000026858

  Overlap energy of the core charge distribution:               0.00001402254635
  Self energy of the core charge distribution:             -18773.88682706069812
  Core Hamiltonian energy:                                   5325.53188573934221
  Hartree energy:                                            7855.40500922235697
  Exchange-correlation energy:                              -1704.35555879474964
  Dispersion energy:                                           -2.11426768477741

  Total energy:                                             -7299.41974455597938

  outer SCF iter =    2 RMS gradient =   0.65E-06 energy =      -7299.4197445560
  outer SCF loop converged in   2 iterations or  509 steps


 ENERGY| Total FORCE_EVAL ( QS ) energy [a.u.]:            -7299.419744789793185

 ATOMIC FORCES in [a.u.]

 # Atom   Kind   Element          X              Y              Z
      1      1      Ti          0.00000000     0.00000000     0.00000000
      2      2      Si          0.00000000     0.00000000     0.00000000
      3      2      Si          0.00000000     0.00000000     0.00000000
      4      2      Si          0.00000000     0.00000000     0.00000000
      5      2      Si          0.00000000     0.00000000     0.00000000
      6      2      Si          0.00000000     0.00000000     0.00000000
      7      2      Si          0.00000000     0.00000000     0.00000000
      8      2      Si          0.00000000     0.00000000     0.00000000
      9      2      Si          0.00000000     0.00000000     0.00000000
     10      2      Si          0.00000000     0.00000000     0.00000000
     11      2      Si          0.00000000     0.00000000     0.00000000
     12      2      Si          0.00000000     0.00000000     0.00000000
     13      2      Si          0.00000000     0.00000000     0.00000000
     14      2      Si          0.00000000     0.00000000     0.00000000
     15      2      Si          0.00000000     0.00000000     0.00000000
     16      2      Si          0.00000000     0.00000000     0.00000000
     17      2      Si          0.00000000     0.00000000     0.00000000
     18      2      Si          0.00000000     0.00000000     0.00000000
     19      2      Si          0.00000000     0.00000000     0.00000000
     20      2      Si          0.00000000     0.00000000     0.00000000
     21      2      Si          0.00000000     0.00000000     0.00000000
     22      2      Si          0.00000000     0.00000000     0.00000000
     23      2      Si          0.00000000     0.00000000     0.00000000
     24      2      Si          0.00000000     0.00000000     0.00000000
     25      2      Si          0.00000000     0.00000000     0.00000000
     26      2      Si          0.00000000     0.00000000     0.00000000
     27      2      Si          0.00000000     0.00000000     0.00000000
     28      2      Si          0.00000000     0.00000000     0.00000000
     29      2      Si          0.00000000     0.00000000     0.00000000
     30      2      Si          0.00000000     0.00000000     0.00000000
     31      2      Si          0.00000000     0.00000000     0.00000000
     32      2      Si          0.00000000     0.00000000     0.00000000
     33      2      Si          0.00000000     0.00000000     0.00000000
     34      2      Si          0.00000000     0.00000000     0.00000000
     35      2      Si          0.00000000     0.00000000     0.00000000
     36      2      Si          0.00000000     0.00000000     0.00000000
     37      2      Si          0.00000000     0.00000000     0.00000000
     38      2      Si          0.00000000     0.00000000     0.00000000
     39      2      Si          0.00000000     0.00000000     0.00000000
     40      2      Si          0.00000000     0.00000000     0.00000000
     41      2      Si          0.00000000     0.00000000     0.00000000
     42      2      Si          0.00000000     0.00000000     0.00000000
     43      2      Si          0.00000000     0.00000000     0.00000000
     44      2      Si          0.00000000     0.00000000     0.00000000
     45      2      Si          0.00000000     0.00000000     0.00000000
     46      2      Si          0.00000000     0.00000000     0.00000000
     47      2      Si          0.00000000     0.00000000     0.00000000
     48      2      Si          0.00000000     0.00000000     0.00000000
     49      2      Si          0.00000000     0.00000000     0.00000000
     50      2      Si          0.00000000     0.00000000     0.00000000
     51      2      Si          0.00000000     0.00000000     0.00000000
     52      2      Si          0.00000000     0.00000000     0.00000000
     53      2      Si          0.00000000     0.00000000     0.00000000
     54      2      Si          0.00000000     0.00000000     0.00000000
     55      2      Si          0.00000000     0.00000000     0.00000000
     56      2      Si          0.00000000     0.00000000     0.00000000
     57      2      Si          0.00000000     0.00000000     0.00000000
     58      2      Si          0.00000000     0.00000000     0.00000000
     59      2      Si          0.00000000     0.00000000     0.00000000
     60      2      Si          0.00000000     0.00000000     0.00000000
     61      2      Si          0.00000000     0.00000000     0.00000000
     62      2      Si          0.00000000     0.00000000     0.00000000
     63      2      Si          0.00000000     0.00000000     0.00000000
     64      2      Si          0.00000000     0.00000000     0.00000000
     65      2      Si          0.00000000     0.00000000     0.00000000
     66      2      Si          0.00000000     0.00000000     0.00000000
     67      2      Si          0.00000000     0.00000000     0.00000000
     68      2      Si          0.00000000     0.00000000     0.00000000
     69      2      Si          0.00000000     0.00000000     0.00000000
     70      2      Si          0.00000000     0.00000000     0.00000000
     71      2      Si          0.00000000     0.00000000     0.00000000
     72      2      Si          0.00000000     0.00000000     0.00000000
     73      2      Si          0.00000000     0.00000000     0.00000000
     74      2      Si          0.00000000     0.00000000     0.00000000
     75      2      Si          0.00000000     0.00000000     0.00000000
     76      2      Si          0.00000000     0.00000000     0.00000000
     77      2      Si          0.00000000     0.00000000     0.00000000
     78      2      Si          0.00000000     0.00000000     0.00000000
     79      2      Si          0.00000000     0.00000000     0.00000000
     80      2      Si          0.00000000     0.00000000     0.00000000
     81      2      Si          0.00000000     0.00000000     0.00000000
     82      2      Si          0.00000000     0.00000000     0.00000000
     83      2      Si          0.00000000     0.00000000     0.00000000
     84      2      Si          0.00000000     0.00000000     0.00000000
     85      2      Si          0.00000000     0.00000000     0.00000000
     86      2      Si          0.00000000     0.00000000     0.00000000
     87      2      Si          0.00000000     0.00000000     0.00000000
     88      2      Si          0.00000000     0.00000000     0.00000000
     89      2      Si          0.00000000     0.00000000     0.00000000
     90      2      Si          0.00000000     0.00000000     0.00000000
     91      2      Si          0.00000000     0.00000000     0.00000000
     92      2      Si          0.00000000     0.00000000     0.00000000
     93      2      Si          0.00000000     0.00000000     0.00000000
     94      2      Si          0.00000000     0.00000000     0.00000000
     95      2      Si          0.00000000     0.00000000     0.00000000
     96      2      Si          0.00000000     0.00000000     0.00000000
     97      2      Si          0.00000000     0.00000000     0.00000000
     98      2      Si          0.00000000     0.00000000     0.00000000
     99      2      Si          0.00000000     0.00000000     0.00000000
    100      2      Si          0.00000000     0.00000000     0.00000000
    101      2      Si          0.00000000     0.00000000     0.00000000
    102      2      Si          0.00000000     0.00000000     0.00000000
    103      2      Si          0.00000000     0.00000000     0.00000000
    104      2      Si          0.00000000     0.00000000     0.00000000
    105      2      Si          0.00000000     0.00000000     0.00000000
    106      2      Si          0.00000000     0.00000000     0.00000000
    107      2      Si          0.00000000     0.00000000     0.00000000
    108      2      Si          0.00000000     0.00000000     0.00000000
    109      2      Si          0.00000000     0.00000000     0.00000000
    110      2      Si          0.00000000     0.00000000     0.00000000
    111      2      Si          0.00000000     0.00000000     0.00000000
    112      2      Si          0.00000000     0.00000000     0.00000000
    113      2      Si          0.00000000     0.00000000     0.00000000
    114      2      Si          0.00000000     0.00000000     0.00000000
    115      2      Si          0.00000000     0.00000000     0.00000000
    116      2      Si          0.00000000     0.00000000     0.00000000
    117      2      Si          0.00000000     0.00000000     0.00000000
    118      2      Si          0.00000000     0.00000000     0.00000000
    119      2      Si          0.00000000     0.00000000     0.00000000
    120      2      Si          0.00000000     0.00000000     0.00000000
    121      2      Si          0.00000000     0.00000000     0.00000000
    122      2      Si          0.00000000     0.00000000     0.00000000
    123      2      Si          0.00000000     0.00000000     0.00000000
    124      2      Si          0.00000000     0.00000000     0.00000000
    125      2      Si          0.00000000     0.00000000     0.00000000
    126      2      Si          0.00000000     0.00000000     0.00000000
    127      2      Si          0.00000000     0.00000000     0.00000000
    128      2      Si          0.00000000     0.00000000     0.00000000
    129      2      Si          0.00000000     0.00000000     0.00000000
    130      2      Si          0.00000000     0.00000000     0.00000000
    131      2      Si          0.00000000     0.00000000     0.00000000
    132      2      Si          0.00000000     0.00000000     0.00000000
    133      2      Si          0.00000000     0.00000000     0.00000000
    134      2      Si          0.00000000     0.00000000     0.00000000
    135      2      Si          0.00000000     0.00000000     0.00000000
    136      2      Si          0.00000000     0.00000000     0.00000000
    137      2      Si          0.00000000     0.00000000     0.00000000
    138      2      Si          0.00000000     0.00000000     0.00000000
    139      2      Si          0.00000000     0.00000000     0.00000000
    140      2      Si          0.00000000     0.00000000     0.00000000
    141      2      Si          0.00000000     0.00000000     0.00000000
    142      2      Si          0.00000000     0.00000000     0.00000000
    143      2      Si          0.00000000     0.00000000     0.00000000
    144      2      Si          0.00000000     0.00000000     0.00000000
    145      2      Si          0.00000000     0.00000000     0.00000000
    146      2      Si          0.00000000     0.00000000     0.00000000
    147      2      Si          0.00000000     0.00000000     0.00000000
    148      2      Si          0.00000000     0.00000000     0.00000000
    149      2      Si          0.00000000     0.00000000     0.00000000
    150      2      Si          0.00000000     0.00000000     0.00000000
    151      2      Si          0.00000000     0.00000000     0.00000000
    152      2      Si          0.00000000     0.00000000     0.00000000
    153      2      Si          0.00000000     0.00000000     0.00000000
    154      2      Si          0.00000000     0.00000000     0.00000000
    155      2      Si          0.00000000     0.00000000     0.00000000
    156      2      Si          0.00000000     0.00000000     0.00000000
    157      2      Si          0.00000000     0.00000000     0.00000000
    158      2      Si          0.00000000     0.00000000     0.00000000
    159      2      Si          0.00000000     0.00000000     0.00000000
    160      2      Si          0.00000000     0.00000000     0.00000000
    161      2      Si          0.00000000     0.00000000     0.00000000
    162      2      Si          0.00000000     0.00000000     0.00000000
    163      2      Si          0.00000000     0.00000000     0.00000000
    164      2      Si          0.00000000     0.00000000     0.00000000
    165      2      Si          0.00000000     0.00000000     0.00000000
    166      2      Si          0.00000000     0.00000000     0.00000000
    167      2      Si          0.00000000     0.00000000     0.00000000
    168      2      Si          0.00000000     0.00000000     0.00000000
    169      2      Si          0.00000000     0.00000000     0.00000000
    170      2      Si          0.00000000     0.00000000     0.00000000
    171      2      Si          0.00000000     0.00000000     0.00000000
    172      2      Si          0.00000000     0.00000000     0.00000000
    173      2      Si          0.00000000     0.00000000     0.00000000
    174      2      Si          0.00000000     0.00000000     0.00000000
    175      2      Si          0.00000000     0.00000000     0.00000000
    176      2      Si          0.00000000     0.00000000     0.00000000
    177      2      Si          0.00000000     0.00000000     0.00000000
    178      2      Si          0.00000000     0.00000000     0.00000000
    179      2      Si          0.00000000     0.00000000     0.00000000
    180      2      Si          0.00000000     0.00000000     0.00000000
    181      2      Si          0.00000000     0.00000000     0.00000000
    182      2      Si          0.00000000     0.00000000     0.00000000
    183      2      Si          0.00000000     0.00000000     0.00000000
    184      2      Si          0.00000000     0.00000000     0.00000000
    185      2      Si          0.00000000     0.00000000     0.00000000
    186      2      Si          0.00000000     0.00000000     0.00000000
    187      2      Si          0.00000000     0.00000000     0.00000000
    188      2      Si          0.00000000     0.00000000     0.00000000
    189      2      Si          0.00000000     0.00000000     0.00000000
    190      2      Si          0.00000000     0.00000000     0.00000000
    191      2      Si          0.00000000     0.00000000     0.00000000
    192      3      O           0.00000000     0.00000000     0.00000000
    193      3      O           0.00000000     0.00000000     0.00000000
    194      3      O           0.00000000     0.00000000     0.00000000
    195      3      O           0.00000000     0.00000000     0.00000000
    196      3      O           0.00000000     0.00000000     0.00000000
    197      3      O           0.00000000     0.00000000     0.00000000
    198      3      O           0.00000000     0.00000000     0.00000000
    199      3      O           0.00000000     0.00000000     0.00000000
    200      3      O           0.00000000     0.00000000     0.00000000
    201      3      O           0.00000000     0.00000000     0.00000000
    202      3      O           0.00000000     0.00000000     0.00000000
    203      3      O           0.00000000     0.00000000     0.00000000
    204      3      O           0.00000000     0.00000000     0.00000000
    205      3      O           0.00000000     0.00000000     0.00000000
    206      3      O           0.00000000     0.00000000     0.00000000
    207      3      O           0.00000000     0.00000000     0.00000000
    208      3      O           0.00000000     0.00000000     0.00000000
    209      3      O           0.00000000     0.00000000     0.00000000
    210      3      O           0.00000000     0.00000000     0.00000000
    211      3      O           0.00000000     0.00000000     0.00000000
    212      3      O           0.00000000     0.00000000     0.00000000
    213      3      O           0.00000000     0.00000000     0.00000000
    214      3      O           0.00000000     0.00000000     0.00000000
    215      3      O           0.00000000     0.00000000     0.00000000
    216      3      O           0.00000000     0.00000000     0.00000000
    217      3      O           0.00000000     0.00000000     0.00000000
    218      3      O           0.00000000     0.00000000     0.00000000
    219      3      O           0.00000000     0.00000000     0.00000000
    220      3      O           0.00000000     0.00000000     0.00000000
    221      3      O           0.00000000     0.00000000     0.00000000
    222      3      O           0.00000000     0.00000000     0.00000000
    223      3      O           0.00000000     0.00000000     0.00000000
    224      3      O           0.00000000     0.00000000     0.00000000
    225      3      O           0.00000000     0.00000000     0.00000000
    226      3      O           0.00000000     0.00000000     0.00000000
    227      3      O           0.00000000     0.00000000     0.00000000
    228      3      O           0.00000000     0.00000000     0.00000000
    229      3      O           0.00000000     0.00000000     0.00000000
    230      3      O           0.00000000     0.00000000     0.00000000
    231      3      O           0.00000000     0.00000000     0.00000000
    232      3      O           0.00000000     0.00000000     0.00000000
    233      3      O           0.00000000     0.00000000     0.00000000
    234      3      O           0.00000000     0.00000000     0.00000000
    235      3      O           0.00000000     0.00000000     0.00000000
    236      3      O           0.00000000     0.00000000     0.00000000
    237      3      O           0.00000000     0.00000000     0.00000000
    238      3      O           0.00000000     0.00000000     0.00000000
    239      3      O           0.00000000     0.00000000     0.00000000
    240      3      O           0.00000000     0.00000000     0.00000000
    241      3      O           0.00000000     0.00000000     0.00000000
    242      3      O           0.00000000     0.00000000     0.00000000
    243      3      O           0.00000000     0.00000000     0.00000000
    244      3      O           0.00000000     0.00000000     0.00000000
    245      3      O           0.00000000     0.00000000     0.00000000
    246      3      O           0.00000000     0.00000000     0.00000000
    247      3      O           0.00000000     0.00000000     0.00000000
    248      3      O           0.00000000     0.00000000     0.00000000
    249      3      O           0.00000000     0.00000000     0.00000000
    250      3      O           0.00000000     0.00000000     0.00000000
    251      3      O           0.00000000     0.00000000     0.00000000
    252      3      O           0.00000000     0.00000000     0.00000000
    253      3      O           0.00000000     0.00000000     0.00000000
    254      3      O           0.00000000     0.00000000     0.00000000
    255      3      O           0.00000000     0.00000000     0.00000000
    256      3      O           0.00000000     0.00000000     0.00000000
    257      3      O           0.00000000     0.00000000     0.00000000
    258      3      O           0.00000000     0.00000000     0.00000000
    259      3      O           0.00000000     0.00000000     0.00000000
    260      3      O           0.00000000     0.00000000     0.00000000
    261      3      O           0.00000000     0.00000000     0.00000000
    262      3      O           0.00000000     0.00000000     0.00000000
    263      3      O           0.00000000     0.00000000     0.00000000
    264      3      O           0.00000000     0.00000000     0.00000000
    265      3      O           0.00000000     0.00000000     0.00000000
    266      3      O           0.00000000     0.00000000     0.00000000
    267      3      O           0.00000000     0.00000000     0.00000000
    268      3      O           0.00000000     0.00000000     0.00000000
    269      3      O           0.00000000     0.00000000     0.00000000
    270      3      O           0.00000000     0.00000000     0.00000000
    271      3      O           0.00000000     0.00000000     0.00000000
    272      3      O           0.00000000     0.00000000     0.00000000
    273      3      O           0.00000000     0.00000000     0.00000000
    274      3      O           0.00000000     0.00000000     0.00000000
    275      3      O           0.00000000     0.00000000     0.00000000
    276      3      O           0.00000000     0.00000000     0.00000000
    277      3      O           0.00000000     0.00000000     0.00000000
    278      3      O           0.00000000     0.00000000     0.00000000
    279      3      O           0.00000000     0.00000000     0.00000000
    280      3      O           0.00000000     0.00000000     0.00000000
    281      3      O           0.00000000     0.00000000     0.00000000
    282      3      O           0.00000000     0.00000000     0.00000000
    283      3      O           0.00000000     0.00000000     0.00000000
    284      3      O           0.00000000     0.00000000     0.00000000
    285      3      O           0.00000000     0.00000000     0.00000000
    286      3      O           0.00000000     0.00000000     0.00000000
    287      3      O           0.00000000     0.00000000     0.00000000
    288      3      O           0.00000000     0.00000000     0.00000000
    289      3      O           0.00000000     0.00000000     0.00000000
    290      3      O           0.00000000     0.00000000     0.00000000
    291      3      O           0.00000000     0.00000000     0.00000000
    292      3      O           0.00000000     0.00000000     0.00000000
    293      3      O           0.00000000     0.00000000     0.00000000
    294      3      O           0.00000000     0.00000000     0.00000000
    295      3      O           0.00000000     0.00000000     0.00000000
    296      3      O           0.00000000     0.00000000     0.00000000
    297      3      O           0.00000000     0.00000000     0.00000000
    298      3      O           0.00000000     0.00000000     0.00000000
    299      3      O           0.00000000     0.00000000     0.00000000
    300      3      O           0.00000000     0.00000000     0.00000000
    301      3      O           0.00000000     0.00000000     0.00000000
    302      3      O           0.00000000     0.00000000     0.00000000
    303      3      O           0.00000000     0.00000000     0.00000000
    304      3      O           0.00000000     0.00000000     0.00000000
    305      3      O           0.00000000     0.00000000     0.00000000
    306      3      O           0.00000000     0.00000000     0.00000000
    307      3      O           0.00000000     0.00000000     0.00000000
    308      3      O           0.00000000     0.00000000     0.00000000
    309      3      O           0.00000000     0.00000000     0.00000000
    310      3      O           0.00000000     0.00000000     0.00000000
    311      3      O           0.00000000     0.00000000     0.00000000
    312      3      O           0.00000000     0.00000000     0.00000000
    313      3      O           0.00000000     0.00000000     0.00000000
    314      3      O           0.00000000     0.00000000     0.00000000
    315      3      O           0.00000000     0.00000000     0.00000000
    316      3      O           0.00000000     0.00000000     0.00000000
    317      3      O           0.00000000     0.00000000     0.00000000
    318      3      O           0.00000000     0.00000000     0.00000000
    319      3      O           0.00000000     0.00000000     0.00000000
    320      3      O           0.00000000     0.00000000     0.00000000
    321      3      O           0.00000000     0.00000000     0.00000000
    322      3      O           0.00000000     0.00000000     0.00000000
    323      3      O           0.00000000     0.00000000     0.00000000
    324      3      O           0.00000000     0.00000000     0.00000000
    325      3      O           0.00000000     0.00000000     0.00000000
    326      3      O           0.00000000     0.00000000     0.00000000
    327      3      O           0.00000000     0.00000000     0.00000000
    328      3      O           0.00000000     0.00000000     0.00000000
    329      3      O           0.00000000     0.00000000     0.00000000
    330      3      O           0.00000000     0.00000000     0.00000000
    331      3      O           0.00000000     0.00000000     0.00000000
    332      3      O           0.00000000     0.00000000     0.00000000
    333      3      O           0.00000000     0.00000000     0.00000000
    334      3      O           0.00000000     0.00000000     0.00000000
    335      3      O           0.00000000     0.00000000     0.00000000
    336      3      O           0.00000000     0.00000000     0.00000000
    337      3      O           0.00000000     0.00000000     0.00000000
    338      3      O           0.00000000     0.00000000     0.00000000
    339      3      O           0.00000000     0.00000000     0.00000000
    340      3      O           0.00000000     0.00000000     0.00000000
    341      3      O           0.00000000     0.00000000     0.00000000
    342      3      O           0.00000000     0.00000000     0.00000000
    343      3      O           0.00000000     0.00000000     0.00000000
    344      3      O           0.00000000     0.00000000     0.00000000
    345      3      O           0.00000000     0.00000000     0.00000000
    346      3      O           0.00000000     0.00000000     0.00000000
    347      3      O           0.00000000     0.00000000     0.00000000
    348      3      O           0.00000000     0.00000000     0.00000000
    349      3      O           0.00000000     0.00000000     0.00000000
    350      3      O           0.00000000     0.00000000     0.00000000
    351      3      O           0.00000000     0.00000000     0.00000000
    352      3      O           0.00000000     0.00000000     0.00000000
    353      3      O           0.00000000     0.00000000     0.00000000
    354      3      O           0.00000000     0.00000000     0.00000000
    355      3      O           0.00000000     0.00000000     0.00000000
    356      3      O           0.00000000     0.00000000     0.00000000
    357      3      O           0.00000000     0.00000000     0.00000000
    358      3      O           0.00000000     0.00000000     0.00000000
    359      3      O           0.00000000     0.00000000     0.00000000
    360      3      O           0.00000000     0.00000000     0.00000000
    361      3      O           0.00000000     0.00000000     0.00000000
    362      3      O           0.00000000     0.00000000     0.00000000
    363      3      O           0.00000000     0.00000000     0.00000000
    364      3      O           0.00000000     0.00000000     0.00000000
    365      3      O           0.00000000     0.00000000     0.00000000
    366      3      O           0.00000000     0.00000000     0.00000000
    367      3      O           0.00000000     0.00000000     0.00000000
    368      3      O           0.00000000     0.00000000     0.00000000
    369      3      O           0.00000000     0.00000000     0.00000000
[...]
 flops  2010 x   279 x   670       12060910530000       0.0%    100.0%      0.0%
 flops  2010 x   279 x   128       12291368302080       0.0%    100.0%      0.0%
 flops  2010 x   256 x   654       12962836684800       0.0%    100.0%      0.0%
 flops  2010 x   256 x   686       13597103923200       0.0%    100.0%      0.0%
 flops    13 x    13 x   128       22317720512256       0.0%    100.0%      0.0%
 flops  2010 x   288 x   670       24899944320000       0.0%    100.0%      0.0%
 flops  2010 x   288 x   128       25375728107520       0.0%    100.0%      0.0%
 flops  2010 x   256 x   670       33199925760000       0.0%    100.0%      0.0%
 flops  2010 x   256 x   128       33834304143360       0.0%    100.0%      0.0%
 flops    13 x    32 x    13      125057473382400       0.0%    100.0%      0.0%
 flops inhomo. stacks              82991494505304     100.0%      0.0%      0.0%
 flops total                       664.562051E+12      12.5%     87.5%      0.0%
 flops max/rank                     29.614495E+12      12.5%     87.5%      0.0%
 matmuls inhomo. stacks                    246672     100.0%      0.0%      0.0%
 matmuls total                        15798217878       0.0%    100.0%      0.0%
 number of processed stacks              22007330       1.1%     98.9%      0.0%
 average stack size                                     1.0     726.0       0.0
 marketing flops                     1.130097E+15
 -------------------------------------------------------------------------------
 # multiplications                          13139
 max memory usage/rank               1.294500E+09
 # max total images/rank                        3
 # max 3D layers                                1
 # MPI messages exchanged                 5991384
 MPI messages size (bytes):
  total size                        10.732687E+12
  min size                           0.000000E+00
  max size                          11.030880E+06
  average size                       1.791354E+06
 MPI breakdown and total messages size (bytes):
             size <=      128               40704                        0
       128 < size <=     8192                   0                        0
      8192 < size <=    32768                1728                 56623104
     32768 < size <=   131072                 576                 22832640
    131072 < size <=  4194304             5691576            7965166697904
   4194304 < size <= 16777216              256800            2764596193200
  16777216 < size                               0                        0
 -------------------------------------------------------------------------------

 *** WARNING in dbcsr_mm.F:291 :: Using a non-square number of MPI ranks ***
 *** might lead to poor performance. Used ranks: 24 Suggested: 25 49     ***

 -------------------------------------------------------------------------------
 -                                                                             -
 -                      DBCSR MESSAGE PASSING PERFORMANCE                      -
 -                                                                             -
 -------------------------------------------------------------------------------
 ROUTINE             CALLS      AVE VOLUME [Bytes]
 MP_Bcast              142                     12.
 MP_Allreduce        66127                    106.
 MP_Alltoall         61086                 831203.
 MP_ISend           604020                 810208.
 MP_IRecv           594670                 815818.
 -------------------------------------------------------------------------------

 -------------------------------------------------------------------------------
 -                                                                             -
 -                                DBM STATISTICS                               -
 -                                                                             -
 -------------------------------------------------------------------------------
    M  x    N  x    K                                          COUNT     PERCENT
 -------------------------------------------------------------------------------

 -------------------------------------------------------------------------------
 -                                                                             -
 -                                GRID STATISTICS                              -
 -                                                                             -
 -------------------------------------------------------------------------------
 LP    KERNEL             BACKEND                              COUNT     PERCENT
 4     collocate ortho    CPU                              272703902      51.54%
 4     integrate ortho    CPU                              136351951      25.77%
 3     collocate ortho    CPU                               50420060       9.53%
 3     integrate ortho    CPU                               25210030       4.76%
 7     integrate ortho    CPU                               17948857       3.39%
 2     collocate ortho    CPU                               11860562       2.24%
 2     integrate ortho    CPU                                5930281       1.12%
 6     integrate ortho    CPU                                3334057       0.63%
 5     collocate ortho    CPU                                1642848       0.31%
 5     integrate ortho    CPU                                1601005       0.30%
 0     collocate general  CPU                                 979776       0.19%
 3     integrate general  CPU                                 964224       0.18%
 8     integrate ortho    CPU                                 108128       0.02%
 6     collocate ortho    CPU                                  33912       0.01%
 9     integrate ortho    CPU                                   2232       0.00%
 -------------------------------------------------------------------------------

 MEMORY| Estimated peak process memory [MiB]                                1236

 -------------------------------------------------------------------------------
 -                                                                             -
 -                         MESSAGE PASSING PERFORMANCE                         -
 -                                                                             -
 -------------------------------------------------------------------------------

 ROUTINE             CALLS      AVE VOLUME [Bytes]
 MP_Group                5
 MP_Bcast            36388                 232879.
 MP_Allreduce        99813                   1223.
 MP_Sync               759
 MP_Alltoall         16413               33688815.
 MP_SendRecv         70702                 118111.
 MP_ISendRecv        36777                 127093.
 MP_Wait            136527
 MP_comm_split         754
 MP_ISend            89050                 805484.
 MP_IRecv            89050                 805805.
 -------------------------------------------------------------------------------


 -------------------------------------------------------------------------------
 -                                                                             -
 -                           R E F E R E N C E S                               -
 -                                                                             -
 -------------------------------------------------------------------------------
 
 CP2K version 2023.2, the CP2K developers group (2023).
 CP2K is freely available from https://www.cp2k.org/ .

 Kuehne,Thomas D.; Iannuzzi,Marcella; Del Ben,Mauro;
 Rybkin,Vladimir V.; Seewald,Patrick; Stein,Frederick; Laino,Teodoro;
 Khaliullin,Rustam Z.; Schuett,Ole; Schiffmann,Florian; Golze,Dorothea;
 Wilhelm,Jan; Chulkov,Sergey; Bani-Hashemian,Mohammad Hossein;
 Weber,Valery; Borstnik,Urban; Taillefumier,Mathieu;
 Jakobovits,Alice Shoshana; Lazzaro,Alfio; Pabst,Hans; Mueller,Tiziano;
 Schade,Robert; Guidon,Manuel; Andermatt,Samuel; Holmberg,Nico;
 Schenter,Gregory K.; Hehn,Anna; Bussy,Augustin; Belleflamme,Fabian;
 Tabacchi,Gloria; Gloess,Andreas; Lass,Michael; Bethune,Iain;
 Mundy,Christopher J.; Plessl,Christian; Watkins,Matt;
 VandeVondele,Joost; Krack,Matthias; Hutter,Juerg. 
 The Journal of Chemical Physics, 152 (19), (2020). 
 CP2K: An electronic structure and molecular dynamics software package -
 Quickstep: Efficient and accurate electronic structure calculations.
 https://doi.org/10.1063/5.0007045

 Goerigk, Lars; Hansen, Andreas; Bauer, Christoph; Ehrlich, Stephan;
 Najibi, Asim; Grimme, Stefan. , 19 (48), (2017). 
 A look at the density functional theory zoo with the advanced GMTKN55 database
 for general main group thermochemistry, kinetics and noncovalent interactions.
 https://doi.org/10.1039/C7CP04913G

 Schuett, Ole; Messmer, Peter; Hutter, Juerg; VandeVondele, Joost. 
 Electronic Structure Calculations on Graphics Processing Units, John
 Wiley & Sons, Ltd, 173-190 (2016). 
 GPU-Accelerated Sparse Matrix-Matrix Multiplication for
 Linear Scaling Density Functional Theory.
 https://doi.org/10.1002/9781118670712.ch8

 Heinecke, A; Henry, G; Hutchinson, M; Pabst, H. 
 Proceedings of Intl. Supercomputing Conference, 981-991 (2016). 
 LIBXSMM: Accelerating Small Matrix Multiplications
 by Runtime Code Generation.
 https://doi.org/10.1109/SC.2016.83

 Borstnik, U; VandeVondele, J; Weber, V; Hutter, J. 
 PARALLEL COMPUTING, 40 (5-6), 47-58 (2014). 
 Sparse matrix multiplication: The distributed block-compressed sparse
 row library.
 https://doi.org/10.1016/j.parco.2014.03.012

 Hutter, J; Iannuzzi, M; Schiffmann, F; VandeVondele, J. 
 WIREs Comput Mol Sci., 4 (1), 15-25 (2014). 
 CP2K: atomistic simulations of condensed matter systems.
 https://doi.org/10.1002/wcms.1159

 Grimme, S; Ehrlich, S; Goerigk, L. 
 JOURNAL OF COMPUTATIONAL CHEMISTRY, 32, 1456 (2011). 
 Effect of the damping function in dispersion corrected density functional theory.
 https://doi.org/10.1002/jcc.21759

 Grimme, S; Antony, J; Ehrlich, S; Krieg, H. 
 JOURNAL OF CHEMICAL PHYSICS, 132 (15), 154104 (2010). 
 A consistent and accurate ab initio parametrization of density
 functional dispersion correction (DFT-D) for the 94 elements H-Pu.
 https://doi.org/10.1063/1.3382344

 VandeVondele, J; Hutter, J. 
 JOURNAL OF CHEMICAL PHYSICS, 127 (11), 114105 (2007). 
 Gaussian basis sets for accurate calculations on molecular systems in
 gas and condensed phases.
 https://doi.org/10.1063/1.2770708

 Kuhne, TD; Krack, M; Mohamed, FR; Parrinello, M. 
 PHYSICAL REVIEW LETTERS, 98 (6), 066401 (2007). 
 Efficient and accurate Car-Parrinello-like approach to
 Born-Oppenheimer molecular dynamics.
 https://doi.org/10.1103/PhysRevLett.98.066401

 Krack, M. 
 THEORETICAL CHEMISTRY ACCOUNTS, 114 (1-3), 145-152 (2005). 
 Pseudopotentials for H to Kr optimized for gradient-corrected
 exchange-correlation functionals.
 https://doi.org/10.1007/s00214-005-0655-y

 VandeVondele, J; Krack, M; Mohamed, F; Parrinello, M; Chassaing, T;
 Hutter, J. COMPUTER PHYSICS COMMUNICATIONS, 167 (2), 103-128 (2005). 
 QUICKSTEP: Fast and accurate density functional calculations using a
 mixed Gaussian and plane waves approach.
 https://doi.org/10.1016/j.cpc.2004.12.014

 Frigo, M; Johnson, SG. 
 PROCEEDINGS OF THE IEEE, 93 (2), 216-231 (2005). 
 The design and implementation of FFTW3.
 https://doi.org/10.1109/JPROC.2004.840301

 Kolafa, J. 
 JOURNAL OF COMPUTATIONAL CHEMISTRY, 25 (3), 335-342 (2004). 
 Time-reversible always stable predictor-corrector method for
 molecular dynamics of polarizable molecules.
 https://doi.org/10.1002/jcc.10385

 VandeVondele, J; Hutter, J. 
 JOURNAL OF CHEMICAL PHYSICS, 118 (10), 4365-4369 (2003). 
 An efficient orbital transformation method for electronic structure
 calculations.
 https://doi.org/10.1063/1.1543154

 Hartwigsen, C; Goedecker, S; Hutter, J. 
 PHYSICAL REVIEW B, 58 (7), 3641-3662 (1998). 
 Relativistic separable dual-space Gaussian pseudopotentials from H to Rn.
 https://doi.org/10.1103/PhysRevB.58.3641

 Lippert, G; Hutter, J; Parrinello, M. 
 MOLECULAR PHYSICS, 92 (3), 477-487 (1997). 
 A hybrid Gaussian and plane wave density functional scheme.
 https://doi.org/10.1080/002689797170220

 Perdew, JP; Burke, K; Ernzerhof, M. 
 PHYSICAL REVIEW LETTERS, 77 (18), 3865-3868 (1996). 
 Generalized gradient approximation made simple.
 https://doi.org/10.1103/PhysRevLett.77.3865

 Goedecker, S; Teter, M; Hutter, J. 
 PHYSICAL REVIEW B, 54 (3), 1703-1710 (1996). 
 Separable dual-space Gaussian pseudopotentials.
 https://doi.org/10.1103/PhysRevB.54.1703


 -------------------------------------------------------------------------------
 -                                                                             -
 -                                T I M I N G                                  -
 -                                                                             -
 -------------------------------------------------------------------------------
 SUBROUTINE                       CALLS  ASD         SELF TIME        TOTAL TIME
                                MAXIMUM       AVERAGE  MAXIMUM  AVERAGE  MAXIMUM
 CP2K                                 1  1.0    0.010    0.012 5217.930 5217.939
 cp_geo_opt                           1  2.0    0.000    0.000 5216.722 5216.734
 geoopt_bfgs                          1  3.0    0.126    0.136 5216.722 5216.734
 cp_eval_at                          63  4.0    0.011    0.070 5199.494 5199.555
 qs_forces                           62  5.0    0.022    0.022 5168.460 5168.469
 qs_energies                         63  6.0    0.005    0.006 4906.765 4906.850
 scf_env_do_scf                      63  7.0    0.003    0.007 4690.525 4690.581
 scf_env_do_scf_inner_loop          879  8.0    0.022    0.142 3551.520 3552.549
 rebuild_ks_matrix                  941  9.8    0.005    0.005 1678.021 1679.928
 qs_ks_build_kohn_sham_matrix       941 10.8    0.131    0.145 1678.016 1679.923
 qs_ks_update_qs_env                943  9.0    0.008    0.009 1447.418 1449.070
 dbcsr_multiply_generic           13139 13.7    0.873    0.973 1267.349 1273.249
 qs_scf_new_mos                     879  9.0    0.006    0.008 1188.905 1193.089
 qs_scf_loop_do_ot                  879 10.0    0.006    0.009 1188.899 1193.084
 init_scf_loop                       64  8.0    0.003    0.003 1136.581 1136.609
 ot_scf_mini                        879 11.0    0.033    0.039 1103.556 1105.793
 qs_rho_update_rho_low              942  9.1    0.005    0.005 1063.551 1092.603
 calculate_rho_elec                 942 10.1    2.762    2.898 1063.546 1092.599
 pw_transfer                      15750 13.7    0.755    0.800 1064.684 1070.131
 fft_wrap_pw1pw2                  13868 14.8    0.135    0.142 1051.475 1056.912
 fft_wrap_pw1pw2_180               7968 16.4  174.723  180.599 1010.131 1016.489
 multiply_cannon                  13139 14.7    1.200    1.693  990.301 1008.116
 prepare_preconditioner              64  9.0    0.001    0.001  968.816  969.405
 multiply_cannon_loop             13139 15.7    2.142    2.354  947.277  968.323
 qs_vxc_create                      941 11.8    0.021    0.023  932.096  935.462
 make_preconditioner                 64 10.0    0.002    0.002  931.391  931.570
 make_full_all                       64 11.0    0.138    0.172  896.052  896.091
 multiply_cannon_multrec         157668 16.7  651.351  712.550  651.540  712.740
 fft3d_ps                         13868 16.8  319.867  334.814  705.072  710.073
 cp_fm_syevd                        754 13.4    0.009    0.012  690.891  691.639
 cp_fm_redistribute_end             754 14.4  346.143  687.980  346.576  687.991
 cp_fm_syevd_base                   754 14.4  339.505  680.686  339.505  680.686
 xc_vxc_pw_create                   533 12.6   16.673   17.732  671.683  675.051
 xc_pw_derive                      4422 14.7    0.081    0.090  639.492  645.317
 ot_mini                            879 12.0    0.008    0.009  623.312  626.931
 xc_rho_set_and_dset_create         941 13.8    8.454    9.733  591.159  596.123
 sum_up_and_integrate               533 11.6    5.125    5.173  531.161  531.394
 integrate_v_rspace                 533 12.6    0.020    0.021  526.034  526.274
 grid_collocate_task_list           942 11.1  467.250  506.721  467.250  506.721
 mp_waitall_1                    783261 17.8  353.744  414.925  353.744  414.925
 density_rs2pw                      942 11.1    0.057    0.062  377.138  401.994
 grid_integrate_task_list           533 13.6  358.185  383.352  358.185  383.352
 apply_preconditioner_dbcsr         535 14.0    0.002    0.002  367.293  368.613
 apply_all                          535 15.0    0.444    0.518  367.291  368.612
 multiply_cannon_metrocomm3      157668 16.7    0.585    0.715  283.659  342.399
 ot_new_cg_direction                471 13.0    0.009    0.011  330.611  330.612
 xc_pw_divergence                   533 13.6    0.033    0.037  310.484  316.278
 qs_ot_get_derivative               471 13.0    0.006    0.008  289.578  292.412
 mp_alltoall_d11v                 17875 15.0  237.433  280.941  237.433  280.941
 x_to_yz                           6963 18.5  178.160  180.878  245.660  260.987
 write_mo_set_to_restart            879  9.0    1.019   24.106   61.359  260.657
 xc_exc_calc                        408 13.0    1.179    1.190  260.392  260.394
 cp_fm_write_unformatted            149  8.5   33.837  235.095   60.078  260.264
 write_mo_set_low                    88 10.0    0.002    0.036   58.327  258.495
 rs_scatter_matrices               1004 11.1   10.420   11.751  213.178  242.045
 mp_send_dv                         447  9.3   26.187  235.103   26.187  235.103
 qs_ks_update_qs_env_forces          62  6.0    0.000    0.000  233.387  233.614
 make_m2s                         26278 14.7    0.742    0.875  212.386  215.095
 qs_ot_get_p                        943 11.9    0.007    0.010  199.534  206.760
 rs_pw_transfer                    7500 12.9    0.081    0.090  155.938  184.647
 xc_functional_eval                 941 14.8    0.009    0.011  163.233  166.722
 pbe_lda_eval                       941 15.8  163.224  166.712  163.224  166.712
 init_scf_run                        63  7.0    0.001    0.004  159.979  160.000
 scf_env_initial_rho_setup           63  8.0    0.001    0.002  159.977  159.998
 make_images                      26278 15.7    3.175    3.376  155.683  158.595
 wfi_extrapolate                     63  9.0    0.009    0.011  157.121  157.125
 parallel_gemm_fm                  1046 10.2    0.003    0.004  156.397  156.970
 parallel_gemm_fm_gemm             1046 11.2    0.003    0.004  156.394  156.967
 cp_fm_gemm                        1046 12.2  156.391  156.964  156.391  156.964
 yz_to_x                           6905 17.1   90.439   91.891  139.265  148.884
 mp_alltoall_z22v                 13868 18.8  116.326  144.176  116.326  144.176
 qs_ot_get_orbitals                 879 12.0    0.006    0.008  139.819  140.713
 potential_pw2rs                    533 13.6    0.173    0.228  138.391  138.616
 cp_dbcsr_syevd                     628 13.5    0.046    0.080  130.759  131.275
 qs_ot_p2m_diag                     500 13.0    2.190    2.435  124.398  124.899
 qs_ot_get_derivative_diag          249 14.0    0.008    0.012  104.596  106.378
 -------------------------------------------------------------------------------

 The number of warnings for this run is : 2
 
 -------------------------------------------------------------------------------
  **** **** ******  **  PROGRAM ENDED AT                 2025-01-28 15:51:31.286
 ***** ** ***  *** **   PROGRAM RAN ON                         c0141.ten.osc.edu
 **    ****   ******    PROGRAM RAN BY                                   xiutinc
 ***** **    ** ** **   PROGRAM PROCESS ID                                424701
  **** **  *******  **  PROGRAM STOPPED IN /fs/scratch/PAS2536/xiutinc/386245.ad
                                           l02_01_02_propanol
