 DBCSR| CPU Multiplication driver                                           XSMM (U)
 DBCSR| Multrec recursion limit                                              512 (U)
 DBCSR| Multiplication stack size                                           1000 (D)
 DBCSR| Maximum elements for images                                    UNLIMITED (U)
 DBCSR| Multiplicative factor virtual images                                   1 (U)
 DBCSR| Use multiplication densification                                       T (D)
 DBCSR| Multiplication size stacks                                             3 (U)
 DBCSR| Use memory pool for CPU allocation                                     F (U)
 DBCSR| Number of 3D layers                                               SINGLE (U)
 DBCSR| Use MPI memory allocation                                              F (U)
 DBCSR| Use RMA algorithm                                                      F (U)
 DBCSR| Use Communication thread                                               T (U)
 DBCSR| Communication thread load                                             87 (D)
 DBCSR| MPI: My process id                                                     0
 DBCSR| MPI: Number of processes                                              24
 DBCSR| OMP: Current number of threads                                         1
 DBCSR| OMP: Max number of threads                                             1
 DBCSR| Split modifier for TAS multiplication algorithm                  1.0E+00 (U)


  **** **** ******  **  PROGRAM STARTED AT               2025-01-28 14:24:18.382
 ***** ** ***  *** **   PROGRAM STARTED ON                     c0219.ten.osc.edu
 **    ****   ******    PROGRAM STARTED BY                               xiutinc
 ***** **    ** ** **   PROGRAM PROCESS ID                                271372
  **** **  *******  **  PROGRAM STARTED IN /fs/scratch/PAS2536/xiutinc/386228.ad
                                           l02_01_02_propanol

 CP2K| version string:                                       CP2K version 2023.2
 CP2K| source code revision number:                                  git:65cca6c
 CP2K| cp2kflags: omp libint fftw3 libxc parallel scalapack xsmm plumed2 mkl sir
 CP2K|            ius
 CP2K| is freely available from                            https://www.cp2k.org/
 CP2K| Program compiled at                          Mon Oct 14 13:01:09 EDT 2024
 CP2K| Program compiled on                             cardinal-rw02.ten.osc.edu
 CP2K| Program compiled for                       linux-rhel9-sapphirerapids-gcc
 CP2K| Data directory path    /apps/spack/0.21/cardinal/linux-rhel9-sapphirerapi
 CP2K| Input file name                                             intE02_aq.inp

 GLOBAL| Force Environment number                                              1
 GLOBAL| Basis set file name                                          BASIS_file
 GLOBAL| Potential file name                                     POTENTIALS_file
 GLOBAL| MM Potential file name                                     MM_POTENTIAL
 GLOBAL| Coordinate file name                                    ./intE02_aq.xyz
 GLOBAL| Method name                                                        CP2K
 GLOBAL| Project name                                                  intE02_aq
 GLOBAL| Run type                                                        GEO_OPT
 GLOBAL| FFT library                                                       FFTW3
 GLOBAL| Diagonalization library                                       ScaLAPACK
 GLOBAL| DGEMM library                                                      BLAS
 GLOBAL| Orthonormality check for eigenvectors                          DISABLED
 GLOBAL| Matrix multiplication library                                 ScaLAPACK
 GLOBAL| All-to-all communication in single precision                          F
 GLOBAL| FFTs using library dependent lengths                                  F
 GLOBAL| Grid backend                                                       AUTO
 GLOBAL| Global print level                                                  LOW
 GLOBAL| MPI I/O enabled                                                       T
 GLOBAL| Total number of message passing processes                            24
 GLOBAL| Number of threads for this process                                    1
 GLOBAL| This output is from process                                           0
 GLOBAL| Stack size for threads created by OpenMP (OMP_STACKSIZE)        default
 GLOBAL| CPU model name                            Intel(R) Xeon(R) CPU Max 9470
 GLOBAL| CPUID                                                              1003

 MEMORY| system memory details [Kb]
 MEMORY|                        rank 0           min           max       average
 MEMORY| MemTotal            662060560     662060560     662060560     662060560
 MEMORY| MemFree             632436908     632436908     632453288     632446809
 MEMORY| Buffers                 80540         80540         80540         80540
 MEMORY| Cached                1234288       1234264       1234288       1234277
 MEMORY| Slab                   915768        915732        915768        915751
 MEMORY| SReclaimable           225080        225080        225080        225080
 MEMORY| MemLikelyFree       633976816     633976816     633993172     633986706


 *******************************************************************************
 *******************************************************************************
 **                                                                           **
 **     #####                         ##              ##                      **
 **    ##   ##            ##          ##              ##                      **
 **   ##     ##                       ##            ######                    **
 **   ##     ##  ##   ##  ##   #####  ##  ##   ####   ##    #####    #####    **
 **   ##     ##  ##   ##  ##  ##      ## ##   ##      ##   ##   ##  ##   ##   **
 **   ##  ## ##  ##   ##  ##  ##      ####     ###    ##   ######   ######    **
 **    ##  ###   ##   ##  ##  ##      ## ##      ##   ##   ##       ##        **
 **     #######   #####   ##   #####  ##  ##  ####    ##    #####   ##        **
 **           ##                                                    ##        **
 **                                                                           **
 **                                                ... make the atoms dance   **
 **                                                                           **
 **            Copyright (C) by CP2K developers group (2000-2023)             **
 **                      J. Chem. Phys. 152, 194103 (2020)                    **
 **                                                                           **
 *******************************************************************************


 TOTAL NUMBERS AND MAXIMUM NUMBERS

  Total number of            - Atomic kinds:                                   5
                             - Atoms:                                        654
                             - Shell sets:                                   654
                             - Shells:                                      3165
                             - Primitive Cartesian functions:               3081
                             - Cartesian basis functions:                   8687
                             - Spherical basis functions:                   8083

  Maximum angular momentum of- Orbital basis functions:                        3
                             - Local part of the GTH pseudopotential:          2
                             - Non-local part of the GTH pseudopotential:      3


 SCF PARAMETERS         Density guess:                                   RESTART
                        --------------------------------------------------------
                        max_scf:                                             500
                        max_scf_history:                                       0
                        max_diis:                                              4
                        --------------------------------------------------------
                        eps_scf:                                        1.00E-06
                        eps_scf_history:                                0.00E+00
                        eps_diis:                                       1.00E-01
                        eps_eigval:                                     1.00E-05
                        --------------------------------------------------------
                        level_shift [a.u.]:                             0.000000
                        --------------------------------------------------------
                        Outer loop SCF in use 
                        No variables optimised in outer loop
                        eps_scf                                         1.00E-06
                        max_scf                                               50
                        No outer loop optimization
                        step_size                                       5.00E-01

 BFGS| Use rational function optimization for step estimation:                NO
 BFGS| Use model Hessian for initial guess:                                  YES
 BFGS| Restart Hessian:                                                       NO
 BFGS| Trust radius:                                                       0.472

 *******************************************************************************
 ***                     STARTING GEOMETRY OPTIMIZATION                      ***
 ***                                   BFGS                                  ***
 *******************************************************************************

 Number of electrons:                                                       3256
 Number of occupied orbitals:                                               1628
 Number of molecular orbitals:                                              1628

 Number of orbital functions:                                               8083
 Number of independent orbital functions:                                   8083

 Extrapolation method: initial_guess

 *** WARNING in qs_initial_guess.F:305 :: User requested to restart the   ***
 *** wavefunction from the file named: intE02_aq-RESTART.wfn. This file   ***
 *** does not exist. Please check the existence of the file or change     ***
 *** properly the value of the keyword WFN_RESTART_FILE_NAME. Calculation ***
 *** continues using ATOMIC GUESS.                                        ***



 SCF WAVEFUNCTION OPTIMIZATION

  ----------------------------------- OT ---------------------------------------
  Minimizer      : CG                  : conjugate gradient
  Preconditioner : FULL_ALL            : diagonalization, state selective
  Precond_solver : DEFAULT
  Line search    : 2PNT                : 2 energies, one gradient
  stepsize       :    0.15000000                  energy_gap     :    0.00100000
  eps_taylor     :   0.10000E-15                  max_taylor     :             4
  ----------------------------------- OT ---------------------------------------

  Step     Update method      Time    Convergence         Total energy    Change
  ------------------------------------------------------------------------------
     1 OT CG       0.15E+00   22.6     0.01636492     -7071.3880439259 -7.07E+03
     2 OT LS       0.67E-01    2.5                    -7011.9329834325
     3 OT CG       0.67E-01    5.6     0.07013543     -6993.7196251092  7.77E+01
     4 OT LS       0.11E-01    2.4                    -5556.9699001843
     5 OT CG       0.11E-01    5.6     0.01952152     -7055.3359966820 -6.16E+01
     6 OT LS       0.15E-01    2.4                    -7086.2381513743
     7 OT CG       0.15E-01    5.6     0.01150451     -7090.0632723411 -3.47E+01
     8 OT LS       0.60E-01    2.4                    -7115.4816690138
     9 OT CG       0.60E-01    5.6     0.01217772     -7161.2206976237 -7.12E+01
    10 OT LS       0.43E-01    2.4                    -7203.6903007053
    11 OT CG       0.43E-01    5.6     0.00738529     -7207.9016073434 -4.67E+01
    12 OT LS       0.56E-01    2.4                    -7227.4210492342
    13 OT CG       0.56E-01    5.6     0.00862123     -7227.8337662481 -1.99E+01
    14 OT LS       0.32E-01    2.4                    -7234.2546321886
    15 OT CG       0.32E-01    5.6     0.00558689     -7241.5083930735 -1.37E+01
    16 OT LS       0.92E-01    2.4                    -7252.3489881931
    17 OT CG       0.92E-01    5.6     0.00501977     -7259.0375855594 -1.75E+01
    18 OT LS       0.38E-01    2.4                    -7253.4392797157
    19 OT CG       0.38E-01    5.6     0.00338010     -7263.8372111442 -4.80E+00
    20 OT LS       0.88E-01    2.5                    -7268.2439233196
    21 OT CG       0.88E-01    5.6     0.00304239     -7270.0367487981 -6.20E+00
    22 OT LS       0.50E-01    2.4                    -7271.1692528687
    23 OT CG       0.50E-01    5.6     0.00237626     -7272.6998257119 -2.66E+00
    24 OT LS       0.74E-01    2.4                    -7275.1581082303
    25 OT CG       0.74E-01    5.6     0.00223561     -7275.4678104960 -2.77E+00
    26 OT LS       0.63E-01    2.4                    -7277.4809827873
    27 OT CG       0.63E-01    5.6     0.00201084     -7277.5669924965 -2.10E+00
    28 OT LS       0.76E-01    2.4                    -7279.5005650102
    29 OT CG       0.76E-01    5.6     0.00199061     -7279.5535411893 -1.99E+00
    30 OT LS       0.77E-01    2.4                    -7281.5326721199
    31 OT CG       0.77E-01    5.6     0.00188853     -7281.5332265031 -1.98E+00
    32 OT LS       0.68E-01    2.4                    -7283.0979784243
    33 OT CG       0.68E-01    5.6     0.00186765     -7283.1325884112 -1.60E+00
    34 OT LS       0.73E-01    2.4                    -7284.7785523817
    35 OT CG       0.73E-01    5.7     0.00177172     -7284.7838133053 -1.65E+00
    36 OT LS       0.74E-01    2.5                    -7286.3076699213
    37 OT CG       0.74E-01    5.6     0.00161811     -7286.3093344401 -1.53E+00
    38 OT LS       0.75E-01    2.5                    -7287.6126140200
    39 OT CG       0.75E-01    5.6     0.00161198     -7287.6125312838 -1.30E+00
    40 OT LS       0.70E-01    2.4                    -7288.7869264499
    41 OT CG       0.70E-01    5.6     0.00146514     -7288.7953335430 -1.18E+00
    42 OT LS       0.78E-01    2.5                    -7289.8740159399
    43 OT CG       0.78E-01    5.6     0.00139499     -7289.8868303450 -1.09E+00
    44 OT LS       0.72E-01    2.5                    -7290.8035238599
    45 OT CG       0.72E-01    5.6     0.00132027     -7290.8095682398 -9.23E-01
    46 OT LS       0.76E-01    2.4                    -7291.6835420564
    47 OT CG       0.76E-01    5.6     0.00124637     -7291.6861980184 -8.77E-01
    48 OT LS       0.79E-01    2.4                    -7292.4922746951
    49 OT CG       0.79E-01    5.6     0.00120992     -7292.4932782100 -8.07E-01
    50 OT LS       0.74E-01    2.4                    -7293.1994037949
    51 OT CG       0.74E-01    5.6     0.00113337     -7293.2030772916 -7.10E-01
    52 OT LS       0.82E-01    2.4                    -7293.8889627972
    53 OT CG       0.82E-01    5.6     0.00109958     -7293.8952266275 -6.92E-01
    54 OT LS       0.80E-01    2.4                    -7294.5313585373
    55 OT CG       0.80E-01    5.6     0.00107061     -7294.5317601273 -6.37E-01
    56 OT LS       0.78E-01    2.4                    -7295.1149794914
    57 OT CG       0.78E-01    5.6     0.00101428     -7295.1156335503 -5.84E-01
    58 OT LS       0.80E-01    2.4                    -7295.6559893516
    59 OT CG       0.80E-01    5.6     0.00096496     -7295.6564591527 -5.41E-01
    60 OT LS       0.81E-01    2.4                    -7296.1510428021
    61 OT CG       0.81E-01    5.6     0.00092400     -7296.1510771745 -4.95E-01
    62 OT LS       0.80E-01    2.4                    -7296.6005791885
    63 OT CG       0.80E-01    5.6     0.00087786     -7296.6006154869 -4.50E-01
    64 OT LS       0.81E-01    2.4                    -7297.0090025391
    65 OT CG       0.81E-01    5.6     0.00082833     -7297.0090242023 -4.08E-01
    66 OT LS       0.83E-01    2.4                    -7297.3829927202
    67 OT CG       0.83E-01    5.6     0.00078797     -7297.3832856349 -3.74E-01
    68 OT LS       0.82E-01    2.9                    -7297.7182893463
    69 OT CG       0.82E-01    5.6     0.00075679     -7297.7183347436 -3.35E-01
    70 OT LS       0.82E-01    2.4                    -7298.0258645226
    71 OT CG       0.82E-01    5.6     0.00071982     -7298.0258727079 -3.08E-01
    72 OT LS       0.84E-01    2.5                    -7298.3109690003
    73 OT CG       0.84E-01    5.6     0.00069003     -7298.3111432637 -2.85E-01
    74 OT LS       0.83E-01    2.4                    -7298.5696219950
    75 OT CG       0.83E-01    5.6     0.00065986     -7298.5696783596 -2.59E-01
    76 OT LS       0.84E-01    2.4                    -7298.8100408382
    77 OT CG       0.84E-01    5.6     0.00063243     -7298.8100983210 -2.40E-01
    78 OT LS       0.84E-01    2.4                    -7299.0310428147
    79 OT CG       0.84E-01    5.6     0.00061019     -7299.0310422333 -2.21E-01
    80 OT LS       0.84E-01    2.4                    -7299.2355389101
    81 OT CG       0.84E-01    5.6     0.00058544     -7299.2355458275 -2.05E-01
    82 OT LS       0.84E-01    2.4                    -7299.4257645411
    83 OT CG       0.84E-01    5.6     0.00056082     -7299.4257829375 -1.90E-01
    84 OT LS       0.84E-01    2.4                    -7299.5994691675
    85 OT CG       0.84E-01    5.6     0.00054041     -7299.5994754282 -1.74E-01
    86 OT LS       0.84E-01    2.4                    -7299.7610287151
    87 OT CG       0.84E-01    5.6     0.00051741     -7299.7610287483 -1.62E-01
    88 OT LS       0.85E-01    2.4                    -7299.9104134177
    89 OT CG       0.85E-01    5.6     0.00049697     -7299.9104243269 -1.49E-01
    90 OT LS       0.84E-01    2.4                    -7300.0474610350
    91 OT CG       0.84E-01    5.6     0.00047999     -7300.0474656541 -1.37E-01
    92 OT LS       0.84E-01    2.4                    -7300.1745722951
    93 OT CG       0.84E-01    5.6     0.00046091     -7300.1745772429 -1.27E-01
    94 OT LS       0.84E-01    2.4                    -7300.2926846946
    95 OT CG       0.84E-01    5.6     0.00044375     -7300.2926907266 -1.18E-01
    96 OT LS       0.85E-01    2.4                    -7300.4024421236
    97 OT CG       0.85E-01    5.6     0.00042798     -7300.4024424994 -1.10E-01
    98 OT LS       0.85E-01    2.4                    -7300.5046481387
    99 OT CG       0.85E-01    5.6     0.00041408     -7300.5046482664 -1.02E-01
   100 OT LS       0.85E-01    2.4                    -7300.6004287123
   101 OT CG       0.85E-01    5.6     0.00040151     -7300.6004288001 -9.58E-02
   102 OT LS       0.85E-01    2.5                    -7300.6907074497
   103 OT CG       0.85E-01    5.6     0.00038880     -7300.6907079047 -9.03E-02
   104 OT LS       0.85E-01    2.4                    -7300.7750602600
   105 OT CG       0.85E-01    5.6     0.00037603     -7300.7750616653 -8.44E-02
   106 OT LS       0.85E-01    2.4                    -7300.8543440629
   107 OT CG       0.85E-01    5.6     0.00036441     -7300.8543459149 -7.93E-02
   108 OT LS       0.85E-01    2.4                    -7300.9287440520
   109 OT CG       0.85E-01    5.6     0.00035340     -7300.9287440985 -7.44E-02
   110 OT LS       0.84E-01    2.4                    -7300.9981302844
   111 OT CG       0.84E-01    5.6     0.00034127     -7300.9981350971 -6.94E-02
   112 OT LS       0.86E-01    2.4                    -7301.0636976037
   113 OT CG       0.86E-01    5.6     0.00032950     -7301.0637086345 -6.56E-02
   114 OT LS       0.86E-01    2.4                    -7301.1248834960
   115 OT CG       0.86E-01    5.6     0.00031990     -7301.1248835271 -6.12E-02
   116 OT LS       0.85E-01    2.4                    -7301.1823114426
   117 OT CG       0.85E-01    5.6     0.00030974     -7301.1823123903 -5.74E-02
   118 OT LS       0.86E-01    2.4                    -7301.2363949171
   119 OT CG       0.86E-01    5.6     0.00029994     -7301.2363961465 -5.41E-02
   120 OT LS       0.86E-01    2.4                    -7301.2875721418
   121 OT CG       0.86E-01    5.6     0.00029304     -7301.2875763038 -5.12E-02
   122 OT LS       0.86E-01    2.4                    -7301.3359831409
   123 OT CG       0.86E-01    5.6     0.00028497     -7301.3359870904 -4.84E-02
   124 OT LS       0.86E-01    2.4                    -7301.3818586957
   125 OT CG       0.86E-01    5.6     0.00027700     -7301.3818588404 -4.59E-02
   126 OT LS       0.86E-01    2.4                    -7301.4254042698
   127 OT CG       0.86E-01    5.6     0.00026991     -7301.4254052762 -4.35E-02
   128 OT LS       0.86E-01    2.4                    -7301.4666184817
   129 OT CG       0.86E-01    5.6     0.00026303     -7301.4666189295 -4.12E-02
   130 OT LS       0.86E-01    2.4                    -7301.5058824633
   131 OT CG       0.86E-01    5.6     0.00025664     -7301.5058828686 -3.93E-02
   132 OT LS       0.86E-01    2.4                    -7301.5433124936
   133 OT CG       0.86E-01    5.6     0.00025002     -7301.5433125619 -3.74E-02
   134 OT LS       0.86E-01    2.4                    -7301.5788565919
   135 OT CG       0.86E-01    5.6     0.00024448     -7301.5788565989 -3.55E-02
   136 OT LS       0.86E-01    2.4                    -7301.6128169756
   137 OT CG       0.86E-01    5.6     0.00023899     -7301.6128169993 -3.40E-02
   138 OT LS       0.86E-01    2.4                    -7301.6453100413
   139 OT CG       0.86E-01    5.6     0.00023372     -7301.6453100875 -3.25E-02
   140 OT LS       0.87E-01    2.4                    -7301.6765629629
   141 OT CG       0.87E-01    5.6     0.00022873     -7301.6765639987 -3.13E-02
   142 OT LS       0.87E-01    2.4                    -7301.7065187012
   143 OT CG       0.87E-01    5.6     0.00022395     -7301.7065187182 -3.00E-02
   144 OT LS       0.87E-01    2.4                    -7301.7351348616
   145 OT CG       0.87E-01    5.6     0.00021933     -7301.7351352605 -2.86E-02
   146 OT LS       0.87E-01    2.4                    -7301.7625588000
   147 OT CG       0.87E-01    5.6     0.00021413     -7301.7625588254 -2.74E-02
   148 OT LS       0.87E-01    2.4                    -7301.7888144154
   149 OT CG       0.87E-01    5.6     0.00020970     -7301.7888149236 -2.63E-02
   150 OT LS       0.87E-01    2.4                    -7301.8139088271
   151 OT CG       0.87E-01    5.6     0.00020575     -7301.8139090968 -2.51E-02
   152 OT LS       0.86E-01    2.4                    -7301.8379661641
   153 OT CG       0.86E-01    5.6     0.00020130     -7301.8379665894 -2.41E-02
   154 OT LS       0.86E-01    2.4                    -7301.8610333486
   155 OT CG       0.86E-01    5.6     0.00019661     -7301.8610334023 -2.31E-02
   156 OT LS       0.87E-01    2.4                    -7301.8832497247
   157 OT CG       0.87E-01    5.6     0.00019251     -7301.8832517064 -2.22E-02
   158 OT LS       0.87E-01    2.4                    -7301.9044226644
   159 OT CG       0.87E-01    5.6     0.00018879     -7301.9044233936 -2.12E-02
   160 OT LS       0.87E-01    2.5                    -7301.9247328474
   161 OT CG       0.87E-01    5.6     0.00018495     -7301.9247329745 -2.03E-02
   162 OT LS       0.87E-01    2.4                    -7301.9443096045
   163 OT CG       0.87E-01    5.6     0.00018088     -7301.9443099768 -1.96E-02
   164 OT LS       0.87E-01    2.4                    -7301.9631230511
   165 OT CG       0.87E-01    5.6     0.00017750     -7301.9631234341 -1.88E-02
   166 OT LS       0.87E-01    2.4                    -7301.9811344158
   167 OT CG       0.87E-01    5.6     0.00017396     -7301.9811350311 -1.80E-02
   168 OT LS       0.87E-01    2.4                    -7301.9985102523
   169 OT CG       0.87E-01    5.6     0.00017088     -7301.9985105988 -1.74E-02
   170 OT LS       0.88E-01    2.4                    -7302.0153188785
   171 OT CG       0.88E-01    5.6     0.00016788     -7302.0153190143 -1.68E-02
   172 OT LS       0.87E-01    2.4                    -7302.0315104911
   173 OT CG       0.87E-01    5.6     0.00016488     -7302.0315105659 -1.62E-02
   174 OT LS       0.87E-01    2.4                    -7302.0470951029
   175 OT CG       0.87E-01    5.6     0.00016183     -7302.0470951823 -1.56E-02
   176 OT LS       0.87E-01    2.4                    -7302.0621363015
   177 OT CG       0.87E-01    5.6     0.00015871     -7302.0621363515 -1.50E-02
   178 OT LS       0.87E-01    2.4                    -7302.0766254231
   179 OT CG       0.87E-01    5.6     0.00015622     -7302.0766254693 -1.45E-02
   180 OT LS       0.87E-01    2.4                    -7302.0906531149
   181 OT CG       0.87E-01    5.6     0.00015353     -7302.0906531196 -1.40E-02
   182 OT LS       0.87E-01    2.4                    -7302.1042165252
   183 OT CG       0.87E-01    5.6     0.00015086     -7302.1042165365 -1.36E-02
   184 OT LS       0.88E-01    2.4                    -7302.1173276181
   185 OT CG       0.88E-01    5.6     0.00014846     -7302.1173276320 -1.31E-02
   186 OT LS       0.88E-01    2.4                    -7302.1300467028
   187 OT CG       0.88E-01    5.6     0.00014569     -7302.1300467505 -1.27E-02
   188 OT LS       0.88E-01    2.4                    -7302.1423360286
   189 OT CG       0.88E-01    5.6     0.00014356     -7302.1423361853 -1.23E-02
   190 OT LS       0.88E-01    2.4                    -7302.1542416719
   191 OT CG       0.88E-01    5.6     0.00014098     -7302.1542417317 -1.19E-02
   192 OT LS       0.88E-01    2.4                    -7302.1657286880
   193 OT CG       0.88E-01    5.6     0.00013844     -7302.1657286884 -1.15E-02
   194 OT LS       0.88E-01    2.4                    -7302.1768158281
   195 OT CG       0.88E-01    5.6     0.00013610     -7302.1768158370 -1.11E-02
   196 OT LS       0.88E-01    2.4                    -7302.1875585839
   197 OT CG       0.88E-01    5.6     0.00013406     -7302.1875586687 -1.07E-02
   198 OT LS       0.88E-01    2.4                    -7302.1979531341
   199 OT CG       0.88E-01    5.6     0.00013225     -7302.1979532003 -1.04E-02
   200 OT LS       0.88E-01    2.4                    -7302.2080960225
   201 OT CG       0.88E-01    5.6     0.00013047     -7302.2080960873 -1.01E-02
   202 OT LS       0.88E-01    2.4                    -7302.2179495318
   203 OT CG       0.88E-01    5.6     0.00012857     -7302.2179495697 -9.85E-03
   204 OT LS       0.88E-01    2.4                    -7302.2275686337
   205 OT CG       0.88E-01    5.6     0.00012693     -7302.2275688959 -9.62E-03
   206 OT LS       0.88E-01    2.5                    -7302.2369344088
   207 OT CG       0.88E-01    5.6     0.00012528     -7302.2369344168 -9.37E-03
   208 OT LS       0.88E-01    2.4                    -7302.2460311488
   209 OT CG       0.88E-01    5.6     0.00012367     -7302.2460312189 -9.10E-03
   210 OT LS       0.88E-01    2.4                    -7302.2549110008
   211 OT CG       0.88E-01    5.6     0.00012190     -7302.2549110191 -8.88E-03
   212 OT LS       0.88E-01    2.4                    -7302.2635436105
   213 OT CG       0.88E-01    5.6     0.00012015     -7302.2635436125 -8.63E-03
   214 OT LS       0.88E-01    2.4                    -7302.2719250721
   215 OT CG       0.88E-01    5.6     0.00011872     -7302.2719250737 -8.38E-03
   216 OT LS       0.88E-01    2.4                    -7302.2801106643
   217 OT CG       0.88E-01    5.6     0.00011711     -7302.2801106664 -8.19E-03
   218 OT LS       0.89E-01    2.4                    -7302.2881122491
   219 OT CG       0.89E-01    5.6     0.00011574     -7302.2881124149 -8.00E-03
   220 OT LS       0.89E-01    2.4                    -7302.2959198459
   221 OT CG       0.89E-01    5.6     0.00011451     -7302.2959198561 -7.81E-03
   222 OT LS       0.88E-01    2.4                    -7302.3035313840
   223 OT CG       0.88E-01    5.6     0.00011302     -7302.3035315207 -7.61E-03
   224 OT LS       0.88E-01    2.4                    -7302.3109614729
   225 OT CG       0.88E-01    5.6     0.00011159     -7302.3109615080 -7.43E-03
   226 OT LS       0.89E-01    2.4                    -7302.3182214794
   227 OT CG       0.89E-01    5.6     0.00011028     -7302.3182215217 -7.26E-03
   228 OT LS       0.88E-01    2.4                    -7302.3252841327
   229 OT CG       0.88E-01    5.6     0.00010907     -7302.3252842393 -7.06E-03
   230 OT LS       0.88E-01    2.4                    -7302.3321677478
   231 OT CG       0.88E-01    5.6     0.00010733     -7302.3321678513 -6.88E-03
   232 OT LS       0.89E-01    2.4                    -7302.3388864858
   233 OT CG       0.89E-01    5.6     0.00010592     -7302.3388868991 -6.72E-03
   234 OT LS       0.89E-01    2.4                    -7302.3454260848
   235 OT CG       0.89E-01    5.6     0.00010473     -7302.3454260868 -6.54E-03
   236 OT LS       0.88E-01    2.4                    -7302.3518090536
   237 OT CG       0.88E-01    5.6     0.00010353     -7302.3518090649 -6.38E-03
   238 OT LS       0.89E-01    2.4                    -7302.3580527694
   239 OT CG       0.89E-01    5.6     0.00010236     -7302.3580527729 -6.24E-03
   240 OT LS       0.89E-01    2.4                    -7302.3641708815
   241 OT CG       0.89E-01    5.6     0.00010114     -7302.3641709145 -6.12E-03
   242 OT LS       0.89E-01    2.4                    -7302.3701493258
   243 OT CG       0.89E-01    5.7     0.00009998     -7302.3701493312 -5.98E-03
   244 OT LS       0.89E-01    2.4                    -7302.3759735593
   245 OT CG       0.89E-01    5.6     0.00009871     -7302.3759736135 -5.82E-03
   246 OT LS       0.89E-01    2.4                    -7302.3816539905
   247 OT CG       0.89E-01    5.6     0.00009743     -7302.3816539927 -5.68E-03
   248 OT LS       0.89E-01    2.4                    -7302.3871938628
   249 OT CG       0.89E-01    5.6     0.00009615     -7302.3871938665 -5.54E-03
   250 OT LS       0.88E-01    2.4                    -7302.3925746545
   251 OT CG       0.88E-01    5.6     0.00009513     -7302.3925746895 -5.38E-03
   252 OT LS       0.89E-01    2.4                    -7302.3978482718
   253 OT CG       0.89E-01    5.6     0.00009397     -7302.3978482793 -5.27E-03
   254 OT LS       0.89E-01    2.5                    -7302.4030122635
   255 OT CG       0.89E-01    5.6     0.00009301     -7302.4030123252 -5.16E-03
   256 OT LS       0.89E-01    2.4                    -7302.4080838428
   257 OT CG       0.89E-01    5.6     0.00009221     -7302.4080838754 -5.07E-03
   258 OT LS       0.89E-01    2.4                    -7302.4130576837
   259 OT CG       0.89E-01    5.6     0.00009111     -7302.4130577107 -4.97E-03
   260 OT LS       0.89E-01    2.4                    -7302.4179153355
   261 OT CG       0.89E-01    5.6     0.00009011     -7302.4179153359 -4.86E-03
   262 OT LS       0.89E-01    2.4                    -7302.4226712575
   263 OT CG       0.89E-01    5.6     0.00008917     -7302.4226712630 -4.76E-03
   264 OT LS       0.89E-01    2.4                    -7302.4273139908
   265 OT CG       0.89E-01    5.6     0.00008820     -7302.4273140406 -4.64E-03
   266 OT LS       0.89E-01    2.5                    -7302.4318517270
   267 OT CG       0.89E-01    5.6     0.00008721     -7302.4318517317 -4.54E-03
   268 OT LS       0.89E-01    2.5                    -7302.4362969939
   269 OT CG       0.89E-01    5.6     0.00008637     -7302.4362970098 -4.45E-03
   270 OT LS       0.89E-01    2.4                    -7302.4406595511
   271 OT CG       0.89E-01    5.6     0.00008552     -7302.4406595532 -4.36E-03
   272 OT LS       0.89E-01    2.4                    -7302.4449214556
   273 OT CG       0.89E-01    5.6     0.00008467     -7302.4449215169 -4.26E-03
   274 OT LS       0.89E-01    2.4                    -7302.4491159089
   275 OT CG       0.89E-01    5.6     0.00008378     -7302.4491159828 -4.19E-03
   276 OT LS       0.89E-01    2.4                    -7302.4532277731
   277 OT CG       0.89E-01    5.6     0.00008284     -7302.4532277783 -4.11E-03
   278 OT LS       0.89E-01    2.4                    -7302.4572610620
   279 OT CG       0.89E-01    5.6     0.00008199     -7302.4572611027 -4.03E-03
   280 OT LS       0.89E-01    2.4                    -7302.4612022467
   281 OT CG       0.89E-01    5.6     0.00008122     -7302.4612022737 -3.94E-03
   282 OT LS       0.89E-01    2.4                    -7302.4650515879
   283 OT CG       0.89E-01    5.6     0.00008041     -7302.4650516739 -3.85E-03
   284 OT LS       0.89E-01    2.4                    -7302.4688314306
   285 OT CG       0.89E-01    5.6     0.00007954     -7302.4688314451 -3.78E-03
   286 OT LS       0.89E-01    2.4                    -7302.4725363091
   287 OT CG       0.89E-01    5.6     0.00007875     -7302.4725363189 -3.70E-03
   288 OT LS       0.89E-01    2.4                    -7302.4761553932
   289 OT CG       0.89E-01    5.6     0.00007801     -7302.4761554391 -3.62E-03
   290 OT LS       0.89E-01    2.4                    -7302.4797045221
   291 OT CG       0.89E-01    5.6     0.00007725     -7302.4797045242 -3.55E-03
   292 OT LS       0.89E-01    2.4                    -7302.4831846255
   293 OT CG       0.89E-01    5.6     0.00007650     -7302.4831846255 -3.48E-03
   294 OT LS       0.89E-01    2.4                    -7302.4866099483
   295 OT CG       0.89E-01    5.6     0.00007572     -7302.4866099913 -3.43E-03
   296 OT LS       0.89E-01    2.4                    -7302.4899718915
   297 OT CG       0.89E-01    5.6     0.00007520     -7302.4899719038 -3.36E-03
   298 OT LS       0.89E-01    2.4                    -7302.4932781193
   299 OT CG       0.89E-01    5.6     0.00007440     -7302.4932781501 -3.31E-03
   300 OT LS       0.89E-01    2.4                    -7302.4965299414
   301 OT CG       0.89E-01    5.6     0.00007375     -7302.4965300147 -3.25E-03
   302 OT LS       0.89E-01    2.4                    -7302.4997151370
   303 OT CG       0.89E-01    5.6     0.00007308     -7302.4997151703 -3.19E-03
   304 OT LS       0.89E-01    2.4                    -7302.5028413217
   305 OT CG       0.89E-01    5.6     0.00007247     -7302.5028413226 -3.13E-03
   306 OT LS       0.89E-01    2.4                    -7302.5059033657
   307 OT CG       0.89E-01    5.6     0.00007163     -7302.5059034112 -3.06E-03
   308 OT LS       0.89E-01    2.4                    -7302.5089104342
   309 OT CG       0.89E-01    5.6     0.00007092     -7302.5089105101 -3.01E-03
   310 OT LS       0.89E-01    2.4                    -7302.5118575758
   311 OT CG       0.89E-01    5.6     0.00007034     -7302.5118575758 -2.95E-03
   312 OT LS       0.89E-01    2.4                    -7302.5147419124
   313 OT CG       0.89E-01    5.6     0.00006968     -7302.5147419913 -2.88E-03
   314 OT LS       0.89E-01    2.4                    -7302.5175725037
   315 OT CG       0.89E-01    5.6     0.00006900     -7302.5175725037 -2.83E-03
   316 OT LS       0.89E-01    2.4                    -7302.5203573027
   317 OT CG       0.89E-01    5.6     0.00006833     -7302.5203573344 -2.78E-03
   318 OT LS       0.89E-01    2.5                    -7302.5230952988
   319 OT CG       0.89E-01    5.6     0.00006768     -7302.5230953157 -2.74E-03
   320 OT LS       0.89E-01    2.4                    -7302.5257793669
   321 OT CG       0.89E-01    5.6     0.00006712     -7302.5257793687 -2.68E-03
   322 OT LS       0.89E-01    2.4                    -7302.5284161733
   323 OT CG       0.89E-01    5.6     0.00006655     -7302.5284161755 -2.64E-03
   324 OT LS       0.89E-01    2.4                    -7302.5310069272
   325 OT CG       0.89E-01    5.6     0.00006591     -7302.5310069283 -2.59E-03
   326 OT LS       0.89E-01    2.4                    -7302.5335541497
   327 OT CG       0.89E-01    5.6     0.00006531     -7302.5335541626 -2.55E-03
   328 OT LS       0.89E-01    2.4                    -7302.5360509518
   329 OT CG       0.89E-01    5.6     0.00006465     -7302.5360509576 -2.50E-03
   330 OT LS       0.89E-01    2.4                    -7302.5384946763
   331 OT CG       0.89E-01    5.6     0.00006405     -7302.5384946807 -2.44E-03
   332 OT LS       0.89E-01    2.4                    -7302.5408907394
   333 OT CG       0.89E-01    5.6     0.00006341     -7302.5408907410 -2.40E-03
   334 OT LS       0.89E-01    2.4                    -7302.5432444751
   335 OT CG       0.89E-01    5.6     0.00006276     -7302.5432444860 -2.35E-03
   336 OT LS       0.89E-01    2.4                    -7302.5455518656
   337 OT CG       0.89E-01    5.6     0.00006222     -7302.5455518663 -2.31E-03
   338 OT LS       0.89E-01    2.4                    -7302.5478189148
   339 OT CG       0.89E-01    5.6     0.00006156     -7302.5478189150 -2.27E-03
   340 OT LS       0.90E-01    2.4                    -7302.5500567491
   341 OT CG       0.90E-01    5.6     0.00006123     -7302.5500569081 -2.24E-03
   342 OT LS       0.89E-01    2.4                    -7302.5522533925
   343 OT CG       0.89E-01    5.6     0.00006071     -7302.5522535236 -2.20E-03
   344 OT LS       0.89E-01    2.4                    -7302.5544190542
   345 OT CG       0.89E-01    5.6     0.00006030     -7302.5544190698 -2.17E-03
   346 OT LS       0.89E-01    2.4                    -7302.5565536870
   347 OT CG       0.89E-01    5.6     0.00005984     -7302.5565536891 -2.13E-03
   348 OT LS       0.89E-01    2.5                    -7302.5586533440
   349 OT CG       0.89E-01    5.6     0.00005940     -7302.5586533467 -2.10E-03
   350 OT LS       0.89E-01    2.4                    -7302.5607242880
   351 OT CG       0.89E-01    5.6     0.00005896     -7302.5607242900 -2.07E-03
   352 OT LS       0.89E-01    2.4                    -7302.5627607140
   353 OT CG       0.89E-01    5.6     0.00005841     -7302.5627607202 -2.04E-03
   354 OT LS       0.89E-01    2.4                    -7302.5647686715
   355 OT CG       0.89E-01    5.6     0.00005803     -7302.5647687141 -2.01E-03
   356 OT LS       0.89E-01    2.4                    -7302.5667481919
   357 OT CG       0.89E-01    5.6     0.00005759     -7302.5667481949 -1.98E-03
   358 OT LS       0.89E-01    2.4                    -7302.5686913722
   359 OT CG       0.89E-01    5.6     0.00005716     -7302.5686913911 -1.94E-03
   360 OT LS       0.89E-01    2.4                    -7302.5706091788
   361 OT CG       0.89E-01    5.6     0.00005676     -7302.5706091852 -1.92E-03
   362 OT LS       0.89E-01    2.4                    -7302.5725021098
   363 OT CG       0.89E-01    5.6     0.00005631     -7302.5725021111 -1.89E-03
   364 OT LS       0.89E-01    2.4                    -7302.5743691400
   365 OT CG       0.89E-01    5.6     0.00005582     -7302.5743691496 -1.87E-03
   366 OT LS       0.90E-01    2.5                    -7302.5762067827
   367 OT CG       0.90E-01    5.6     0.00005542     -7302.5762067879 -1.84E-03
   368 OT LS       0.89E-01    2.4                    -7302.5780142663
   369 OT CG       0.89E-01    5.6     0.00005505     -7302.5780142747 -1.81E-03
   370 OT LS       0.89E-01    2.4                    -7302.5797896476
   371 OT CG       0.89E-01    5.6     0.00005459     -7302.5797896852 -1.78E-03
   372 OT LS       0.89E-01    2.4                    -7302.5815418814
   373 OT CG       0.89E-01    5.6     0.00005413     -7302.5815419082 -1.75E-03
   374 OT LS       0.89E-01    2.4                    -7302.5832642795
   375 OT CG       0.89E-01    5.6     0.00005369     -7302.5832642798 -1.72E-03
   376 OT LS       0.89E-01    2.4                    -7302.5849592790
   377 OT CG       0.89E-01    5.6     0.00005325     -7302.5849592794 -1.69E-03
   378 OT LS       0.89E-01    2.4                    -7302.5866273254
   379 OT CG       0.89E-01    5.6     0.00005286     -7302.5866273255 -1.67E-03
   380 OT LS       0.90E-01    2.4                    -7302.5882753900
   381 OT CG       0.90E-01    5.6     0.00005244     -7302.5882754047 -1.65E-03
   382 OT LS       0.90E-01    2.4                    -7302.5898995535
   383 OT CG       0.90E-01    5.6     0.00005207     -7302.5898995560 -1.62E-03
   384 OT LS       0.90E-01    2.4                    -7302.5915055274
   385 OT CG       0.90E-01    5.6     0.00005175     -7302.5915055415 -1.61E-03
   386 OT LS       0.90E-01    2.4                    -7302.5930876404
   387 OT CG       0.90E-01    5.6     0.00005139     -7302.5930876505 -1.58E-03
   388 OT LS       0.90E-01    2.4                    -7302.5946525197
   389 OT CG       0.90E-01    5.6     0.00005101     -7302.5946525348 -1.56E-03
   390 OT LS       0.90E-01    2.4                    -7302.5961918631
   391 OT CG       0.90E-01    5.6     0.00005066     -7302.5961918692 -1.54E-03
   392 OT LS       0.90E-01    2.4                    -7302.5977055755
   393 OT CG       0.90E-01    5.6     0.00005024     -7302.5977055878 -1.51E-03
   394 OT LS       0.90E-01    2.4                    -7302.5991948661
   395 OT CG       0.90E-01    5.6     0.00004975     -7302.5991948663 -1.49E-03
   396 OT LS       0.90E-01    2.4                    -7302.6006561149
   397 OT CG       0.90E-01    5.6     0.00004938     -7302.6006561162 -1.46E-03
   398 OT LS       0.90E-01    2.4                    -7302.6020954059
   399 OT CG       0.90E-01    5.6     0.00004889     -7302.6020954060 -1.44E-03
   400 OT LS       0.90E-01    2.4                    -7302.6035110160
   401 OT CG       0.90E-01    5.6     0.00004845     -7302.6035110327 -1.42E-03
   402 OT LS       0.90E-01    2.4                    -7302.6048995403
   403 OT CG       0.90E-01    5.6     0.00004806     -7302.6048995428 -1.39E-03
   404 OT LS       0.90E-01    2.4                    -7302.6062657874
   405 OT CG       0.90E-01    5.6     0.00004767     -7302.6062657875 -1.37E-03
   406 OT LS       0.90E-01    2.4                    -7302.6076110629
   407 OT CG       0.90E-01    5.6     0.00004732     -7302.6076110637 -1.35E-03
   408 OT LS       0.90E-01    2.4                    -7302.6089354889
   409 OT CG       0.90E-01    5.6     0.00004683     -7302.6089354895 -1.32E-03
   410 OT LS       0.91E-01    2.4                    -7302.6102453927
   411 OT CG       0.91E-01    5.6     0.00004642     -7302.6102455163 -1.31E-03
   412 OT LS       0.91E-01    2.4                    -7302.6115321965
   413 OT CG       0.91E-01    5.6     0.00004612     -7302.6115321965 -1.29E-03
   414 OT LS       0.90E-01    2.5                    -7302.6127923591
   415 OT CG       0.90E-01    5.6     0.00004581     -7302.6127924372 -1.26E-03
   416 OT LS       0.90E-01    2.4                    -7302.6140338338
   417 OT CG       0.90E-01    5.6     0.00004539     -7302.6140338361 -1.24E-03
   418 OT LS       0.90E-01    2.4                    -7302.6152590981
   419 OT CG       0.90E-01    5.6     0.00004499     -7302.6152591327 -1.23E-03
   420 OT LS       0.90E-01    2.5                    -7302.6164618245
   421 OT CG       0.90E-01    5.6     0.00004465     -7302.6164618257 -1.20E-03
   422 OT LS       0.90E-01    2.4                    -7302.6176470491
   423 OT CG       0.90E-01    5.6     0.00004429     -7302.6176470496 -1.19E-03
   424 OT LS       0.90E-01    2.4                    -7302.6188134387
   425 OT CG       0.90E-01    5.6     0.00004393     -7302.6188134388 -1.17E-03
   426 OT LS       0.90E-01    2.4                    -7302.6199594664
   427 OT CG       0.90E-01    5.6     0.00004363     -7302.6199594688 -1.15E-03
   428 OT LS       0.90E-01    2.4                    -7302.6210901691
   429 OT CG       0.90E-01    5.6     0.00004327     -7302.6210901695 -1.13E-03
   430 OT LS       0.91E-01    2.4                    -7302.6222055384
   431 OT CG       0.91E-01    5.6     0.00004289     -7302.6222055477 -1.12E-03
   432 OT LS       0.91E-01    2.4                    -7302.6233044971
   433 OT CG       0.91E-01    5.6     0.00004269     -7302.6233045059 -1.10E-03
   434 OT LS       0.91E-01    2.4                    -7302.6243914800
   435 OT CG       0.91E-01    5.6     0.00004242     -7302.6243914825 -1.09E-03
   436 OT LS       0.90E-01    2.4                    -7302.6254621731
   437 OT CG       0.90E-01    5.6     0.00004214     -7302.6254621800 -1.07E-03
   438 OT LS       0.90E-01    2.4                    -7302.6265194933
   439 OT CG       0.90E-01    5.6     0.00004188     -7302.6265194940 -1.06E-03
   440 OT LS       0.90E-01    2.4                    -7302.6275635550
   441 OT CG       0.90E-01    5.6     0.00004151     -7302.6275635551 -1.04E-03
   442 OT LS       0.91E-01    2.4                    -7302.6285970062
   443 OT CG       0.91E-01    5.6     0.00004123     -7302.6285970694 -1.03E-03
   444 OT LS       0.91E-01    2.4                    -7302.6296119091
   445 OT CG       0.91E-01    5.6     0.00004099     -7302.6296119316 -1.01E-03
   446 OT LS       0.91E-01    2.4                    -7302.6306129808
   447 OT CG       0.91E-01    5.6     0.00004068     -7302.6306129854 -1.00E-03
   448 OT LS       0.91E-01    2.4                    -7302.6316004249
   449 OT CG       0.91E-01    5.6     0.00004039     -7302.6316004278 -9.87E-04
   450 OT LS       0.91E-01    2.4                    -7302.6325752347
   451 OT CG       0.91E-01    5.6     0.00004019     -7302.6325752368 -9.75E-04
   452 OT LS       0.91E-01    2.4                    -7302.6335413328
   453 OT CG       0.91E-01    5.6     0.00003995     -7302.6335413344 -9.66E-04
   454 OT LS       0.91E-01    2.4                    -7302.6344956978
   455 OT CG       0.91E-01    5.6     0.00003974     -7302.6344956982 -9.54E-04
   456 OT LS       0.91E-01    2.4                    -7302.6354385717
   457 OT CG       0.91E-01    5.6     0.00003948     -7302.6354385729 -9.43E-04
   458 OT LS       0.91E-01    2.4                    -7302.6363703796
   459 OT CG       0.91E-01    5.6     0.00003916     -7302.6363703807 -9.32E-04
   460 OT LS       0.91E-01    2.4                    -7302.6372902979
   461 OT CG       0.91E-01    5.6     0.00003892     -7302.6372903108 -9.20E-04
   462 OT LS       0.91E-01    2.4                    -7302.6381961554
   463 OT CG       0.91E-01    5.6     0.00003869     -7302.6381961652 -9.06E-04
   464 OT LS       0.91E-01    2.4                    -7302.6390891272
   465 OT CG       0.91E-01    5.6     0.00003839     -7302.6390891331 -8.93E-04
   466 OT LS       0.91E-01    2.4                    -7302.6399703197
   467 OT CG       0.91E-01    5.6     0.00003813     -7302.6399703248 -8.81E-04
   468 OT LS       0.91E-01    2.4                    -7302.6408424039
   469 OT CG       0.91E-01    5.6     0.00003795     -7302.6408424144 -8.72E-04
   470 OT LS       0.91E-01    2.4                    -7302.6417056082
   471 OT CG       0.91E-01    5.6     0.00003773     -7302.6417056089 -8.63E-04
   472 OT LS       0.91E-01    2.4                    -7302.6425594550
   473 OT CG       0.91E-01    5.6     0.00003750     -7302.6425594558 -8.54E-04
   474 OT LS       0.91E-01    2.4                    -7302.6434037793
   475 OT CG       0.91E-01    5.6     0.00003730     -7302.6434037798 -8.44E-04
   476 OT LS       0.91E-01    2.4                    -7302.6442367874
   477 OT CG       0.91E-01    5.6     0.00003706     -7302.6442367930 -8.33E-04
   478 OT LS       0.91E-01    2.4                    -7302.6450589639
   479 OT CG       0.91E-01    5.6     0.00003675     -7302.6450589640 -8.22E-04
   480 OT LS       0.91E-01    2.4                    -7302.6458699220
   481 OT CG       0.91E-01    5.6     0.00003650     -7302.6458699312 -8.11E-04
   482 OT LS       0.91E-01    2.4                    -7302.6466681188
   483 OT CG       0.91E-01    5.6     0.00003630     -7302.6466681228 -7.98E-04
   484 OT LS       0.91E-01    2.4                    -7302.6474569075
   485 OT CG       0.91E-01    5.6     0.00003599     -7302.6474569079 -7.89E-04
   486 OT LS       0.91E-01    2.4                    -7302.6482365232
   487 OT CG       0.91E-01    5.6     0.00003579     -7302.6482365443 -7.80E-04
   488 OT LS       0.91E-01    2.4                    -7302.6490064284
   489 OT CG       0.91E-01    5.6     0.00003558     -7302.6490064293 -7.70E-04
   490 OT LS       0.92E-01    2.4                    -7302.6497689964
   491 OT CG       0.92E-01    5.6     0.00003537     -7302.6497690002 -7.63E-04
   492 OT LS       0.92E-01    2.4                    -7302.6505227213
   493 OT CG       0.92E-01    5.6     0.00003519     -7302.6505227213 -7.54E-04
   494 OT LS       0.91E-01    2.4                    -7302.6512665080
   495 OT CG       0.91E-01    5.6     0.00003501     -7302.6512665137 -7.44E-04
   496 OT LS       0.91E-01    2.5                    -7302.6520034835
   497 OT CG       0.91E-01    5.6     0.00003480     -7302.6520034838 -7.37E-04
   498 OT LS       0.91E-01    2.4                    -7302.6527314751
   499 OT CG       0.91E-01    5.6     0.00003463     -7302.6527314751 -7.28E-04
   500 OT LS       0.91E-01    2.4                    -7302.6534531721

  Leaving inner SCF loop after reaching   500 steps.


  Electronic density on regular grids:      -3255.9999971178        0.0000028822
  Core density on regular grids:             3255.9999997984       -0.0000002016
  Total charge density on r-space grids:        0.0000026806
  Total charge density g-space grids:           0.0000026806

  Overlap energy of the core charge distribution:               0.00001721481576
  Self energy of the core charge distribution:             -18778.00753959747090
  Core Hamiltonian energy:                                   5328.81743845449273
  Hartree energy:                                            7856.30896457809104
  Exchange-correlation energy:                              -1707.64738608063590
  Dispersion energy:                                           -2.12494774138624

  Total energy:                                             -7302.65345317209267

  outer SCF iter =    1 RMS gradient =   0.35E-04 energy =      -7302.6534531721

  ----------------------------------- OT ---------------------------------------
  Minimizer      : CG                  : conjugate gradient
  Preconditioner : FULL_ALL            : diagonalization, state selective
  Precond_solver : DEFAULT
  Line search    : 2PNT                : 2 energies, one gradient
  stepsize       :    0.15000000                  energy_gap     :    0.00100000
  eps_taylor     :   0.10000E-15                  max_taylor     :             4
  ----------------------------------- OT ---------------------------------------

  Step     Update method      Time    Convergence         Total energy    Change
  ------------------------------------------------------------------------------
     1 OT CG       0.15E+00   26.2     0.00024413     -7302.6534531729 -7.22E-04
     2 OT LS       0.25E+00    2.2                    -7302.7356798408
     3 OT CG       0.25E+00    5.3     0.00001521     -7302.7510645258 -9.76E-02
     4 OT LS       0.64E-01    2.2                    -7302.7503589019
     5 OT CG       0.64E-01    5.3     0.00000357     -7302.7511621862 -9.77E-05
     6 OT LS       0.10E+00    2.1                    -7302.7511696025
     7 OT CG       0.10E+00    5.2     0.00000133     -7302.7511708084 -8.62E-06
     8 OT LS       0.12E+00    2.1                    -7302.7511721683
     9 OT CG       0.12E+00    5.1     0.00000039     -7302.7511721954 -1.39E-06

  *** SCF run converged in     9 steps ***


  Electronic density on regular grids:      -3255.9999971180        0.0000028820
  Core density on regular grids:             3255.9999997984       -0.0000002016
  Total charge density on r-space grids:        0.0000026804
  Total charge density g-space grids:           0.0000026804

  Overlap energy of the core charge distribution:               0.00001721481576
  Self energy of the core charge distribution:             -18778.00753959747090
  Core Hamiltonian energy:                                   5328.57502411196583
  Hartree energy:                                            7856.43901111043215
  Exchange-correlation energy:                              -1707.63273729373714
  Dispersion energy:                                           -2.12494774138624

  Total energy:                                             -7302.75117219537879

  outer SCF iter =    2 RMS gradient =   0.39E-06 energy =      -7302.7511721954
  outer SCF loop converged in   2 iterations or  509 steps


 ENERGY| Total FORCE_EVAL ( QS ) energy [a.u.]:            -7302.751172307242086

 ATOMIC FORCES in [a.u.]

 # Atom   Kind   Element          X              Y              Z
      1      1      Ti          0.00000000     0.00000000     0.00000000
      2      2      Si          0.00000000     0.00000000     0.00000000
      3      2      Si          0.00000000     0.00000000     0.00000000
      4      2      Si          0.00000000     0.00000000     0.00000000
      5      2      Si          0.00000000     0.00000000     0.00000000
      6      2      Si          0.00000000     0.00000000     0.00000000
      7      2      Si          0.00000000     0.00000000     0.00000000
      8      2      Si          0.00000000     0.00000000     0.00000000
      9      2      Si          0.00000000     0.00000000     0.00000000
     10      2      Si          0.00000000     0.00000000     0.00000000
     11      2      Si          0.00000000     0.00000000     0.00000000
     12      2      Si          0.00000000     0.00000000     0.00000000
     13      2      Si          0.00000000     0.00000000     0.00000000
     14      2      Si          0.00000000     0.00000000     0.00000000
     15      2      Si          0.00000000     0.00000000     0.00000000
     16      2      Si          0.00000000     0.00000000     0.00000000
     17      2      Si          0.00000000     0.00000000     0.00000000
     18      2      Si          0.00000000     0.00000000     0.00000000
     19      2      Si          0.00000000     0.00000000     0.00000000
     20      2      Si          0.00000000     0.00000000     0.00000000
     21      2      Si          0.00000000     0.00000000     0.00000000
     22      2      Si          0.00000000     0.00000000     0.00000000
     23      2      Si          0.00000000     0.00000000     0.00000000
     24      2      Si          0.00000000     0.00000000     0.00000000
     25      2      Si          0.00000000     0.00000000     0.00000000
     26      2      Si          0.00000000     0.00000000     0.00000000
     27      2      Si          0.00000000     0.00000000     0.00000000
     28      2      Si          0.00000000     0.00000000     0.00000000
     29      2      Si          0.00000000     0.00000000     0.00000000
     30      2      Si          0.00000000     0.00000000     0.00000000
     31      2      Si          0.00000000     0.00000000     0.00000000
     32      2      Si          0.00000000     0.00000000     0.00000000
     33      2      Si          0.00000000     0.00000000     0.00000000
     34      2      Si          0.00000000     0.00000000     0.00000000
     35      2      Si          0.00000000     0.00000000     0.00000000
     36      2      Si          0.00000000     0.00000000     0.00000000
     37      2      Si          0.00000000     0.00000000     0.00000000
     38      2      Si          0.00000000     0.00000000     0.00000000
     39      2      Si          0.00000000     0.00000000     0.00000000
     40      2      Si          0.00000000     0.00000000     0.00000000
     41      2      Si          0.00000000     0.00000000     0.00000000
     42      2      Si          0.00000000     0.00000000     0.00000000
     43      2      Si          0.00000000     0.00000000     0.00000000
     44      2      Si          0.00000000     0.00000000     0.00000000
     45      2      Si          0.00000000     0.00000000     0.00000000
     46      2      Si          0.00000000     0.00000000     0.00000000
     47      2      Si          0.00000000     0.00000000     0.00000000
     48      2      Si          0.00000000     0.00000000     0.00000000
     49      2      Si          0.00000000     0.00000000     0.00000000
     50      2      Si          0.00000000     0.00000000     0.00000000
     51      2      Si          0.00000000     0.00000000     0.00000000
     52      2      Si          0.00000000     0.00000000     0.00000000
     53      2      Si          0.00000000     0.00000000     0.00000000
     54      2      Si          0.00000000     0.00000000     0.00000000
     55      2      Si          0.00000000     0.00000000     0.00000000
     56      2      Si          0.00000000     0.00000000     0.00000000
     57      2      Si          0.00000000     0.00000000     0.00000000
     58      2      Si          0.00000000     0.00000000     0.00000000
     59      2      Si          0.00000000     0.00000000     0.00000000
     60      2      Si          0.00000000     0.00000000     0.00000000
     61      2      Si          0.00000000     0.00000000     0.00000000
     62      2      Si          0.00000000     0.00000000     0.00000000
     63      2      Si          0.00000000     0.00000000     0.00000000
     64      2      Si          0.00000000     0.00000000     0.00000000
     65      2      Si          0.00000000     0.00000000     0.00000000
     66      2      Si          0.00000000     0.00000000     0.00000000
     67      2      Si          0.00000000     0.00000000     0.00000000
     68      2      Si          0.00000000     0.00000000     0.00000000
     69      2      Si          0.00000000     0.00000000     0.00000000
     70      2      Si          0.00000000     0.00000000     0.00000000
     71      2      Si          0.00000000     0.00000000     0.00000000
     72      2      Si          0.00000000     0.00000000     0.00000000
     73      2      Si          0.00000000     0.00000000     0.00000000
     74      2      Si          0.00000000     0.00000000     0.00000000
     75      2      Si          0.00000000     0.00000000     0.00000000
     76      2      Si          0.00000000     0.00000000     0.00000000
     77      2      Si          0.00000000     0.00000000     0.00000000
     78      2      Si          0.00000000     0.00000000     0.00000000
     79      2      Si          0.00000000     0.00000000     0.00000000
     80      2      Si          0.00000000     0.00000000     0.00000000
     81      2      Si          0.00000000     0.00000000     0.00000000
     82      2      Si          0.00000000     0.00000000     0.00000000
     83      2      Si          0.00000000     0.00000000     0.00000000
     84      2      Si          0.00000000     0.00000000     0.00000000
     85      2      Si          0.00000000     0.00000000     0.00000000
     86      2      Si          0.00000000     0.00000000     0.00000000
     87      2      Si          0.00000000     0.00000000     0.00000000
     88      2      Si          0.00000000     0.00000000     0.00000000
     89      2      Si          0.00000000     0.00000000     0.00000000
     90      2      Si          0.00000000     0.00000000     0.00000000
     91      2      Si          0.00000000     0.00000000     0.00000000
     92      2      Si          0.00000000     0.00000000     0.00000000
     93      2      Si          0.00000000     0.00000000     0.00000000
     94      2      Si          0.00000000     0.00000000     0.00000000
     95      2      Si          0.00000000     0.00000000     0.00000000
     96      2      Si          0.00000000     0.00000000     0.00000000
     97      2      Si          0.00000000     0.00000000     0.00000000
     98      2      Si          0.00000000     0.00000000     0.00000000
     99      2      Si          0.00000000     0.00000000     0.00000000
    100      2      Si          0.00000000     0.00000000     0.00000000
    101      2      Si          0.00000000     0.00000000     0.00000000
    102      2      Si          0.00000000     0.00000000     0.00000000
    103      2      Si          0.00000000     0.00000000     0.00000000
    104      2      Si          0.00000000     0.00000000     0.00000000
    105      2      Si          0.00000000     0.00000000     0.00000000
    106      2      Si          0.00000000     0.00000000     0.00000000
    107      2      Si          0.00000000     0.00000000     0.00000000
    108      2      Si          0.00000000     0.00000000     0.00000000
    109      2      Si          0.00000000     0.00000000     0.00000000
    110      2      Si          0.00000000     0.00000000     0.00000000
    111      2      Si          0.00000000     0.00000000     0.00000000
    112      2      Si          0.00000000     0.00000000     0.00000000
    113      2      Si          0.00000000     0.00000000     0.00000000
    114      2      Si          0.00000000     0.00000000     0.00000000
    115      2      Si          0.00000000     0.00000000     0.00000000
    116      2      Si          0.00000000     0.00000000     0.00000000
    117      2      Si          0.00000000     0.00000000     0.00000000
    118      2      Si          0.00000000     0.00000000     0.00000000
    119      2      Si          0.00000000     0.00000000     0.00000000
    120      2      Si          0.00000000     0.00000000     0.00000000
    121      2      Si          0.00000000     0.00000000     0.00000000
    122      2      Si          0.00000000     0.00000000     0.00000000
    123      2      Si          0.00000000     0.00000000     0.00000000
    124      2      Si          0.00000000     0.00000000     0.00000000
    125      2      Si          0.00000000     0.00000000     0.00000000
    126      2      Si          0.00000000     0.00000000     0.00000000
    127      2      Si          0.00000000     0.00000000     0.00000000
    128      2      Si          0.00000000     0.00000000     0.00000000
    129      2      Si          0.00000000     0.00000000     0.00000000
    130      2      Si          0.00000000     0.00000000     0.00000000
    131      2      Si          0.00000000     0.00000000     0.00000000
    132      2      Si          0.00000000     0.00000000     0.00000000
    133      2      Si          0.00000000     0.00000000     0.00000000
    134      2      Si          0.00000000     0.00000000     0.00000000
    135      2      Si          0.00000000     0.00000000     0.00000000
    136      2      Si          0.00000000     0.00000000     0.00000000
    137      2      Si          0.00000000     0.00000000     0.00000000
    138      2      Si          0.00000000     0.00000000     0.00000000
    139      2      Si          0.00000000     0.00000000     0.00000000
    140      2      Si          0.00000000     0.00000000     0.00000000
    141      2      Si          0.00000000     0.00000000     0.00000000
    142      2      Si          0.00000000     0.00000000     0.00000000
    143      2      Si          0.00000000     0.00000000     0.00000000
    144      2      Si          0.00000000     0.00000000     0.00000000
    145      2      Si          0.00000000     0.00000000     0.00000000
    146      2      Si          0.00000000     0.00000000     0.00000000
    147      2      Si          0.00000000     0.00000000     0.00000000
    148      2      Si          0.00000000     0.00000000     0.00000000
    149      2      Si          0.00000000     0.00000000     0.00000000
    150      2      Si          0.00000000     0.00000000     0.00000000
    151      2      Si          0.00000000     0.00000000     0.00000000
    152      2      Si          0.00000000     0.00000000     0.00000000
    153      2      Si          0.00000000     0.00000000     0.00000000
    154      2      Si          0.00000000     0.00000000     0.00000000
    155      2      Si          0.00000000     0.00000000     0.00000000
    156      2      Si          0.00000000     0.00000000     0.00000000
    157      2      Si          0.00000000     0.00000000     0.00000000
    158      2      Si          0.00000000     0.00000000     0.00000000
    159      2      Si          0.00000000     0.00000000     0.00000000
    160      2      Si          0.00000000     0.00000000     0.00000000
    161      2      Si          0.00000000     0.00000000     0.00000000
    162      2      Si          0.00000000     0.00000000     0.00000000
    163      2      Si          0.00000000     0.00000000     0.00000000
    164      2      Si          0.00000000     0.00000000     0.00000000
    165      2      Si          0.00000000     0.00000000     0.00000000
    166      2      Si          0.00000000     0.00000000     0.00000000
    167      2      Si          0.00000000     0.00000000     0.00000000
    168      2      Si          0.00000000     0.00000000     0.00000000
    169      2      Si          0.00000000     0.00000000     0.00000000
    170      2      Si          0.00000000     0.00000000     0.00000000
    171      2      Si          0.00000000     0.00000000     0.00000000
    172      2      Si          0.00000000     0.00000000     0.00000000
    173      2      Si          0.00000000     0.00000000     0.00000000
    174      2      Si          0.00000000     0.00000000     0.00000000
    175      2      Si          0.00000000     0.00000000     0.00000000
    176      2      Si          0.00000000     0.00000000     0.00000000
    177      2      Si          0.00000000     0.00000000     0.00000000
    178      2      Si          0.00000000     0.00000000     0.00000000
    179      2      Si          0.00000000     0.00000000     0.00000000
    180      2      Si          0.00000000     0.00000000     0.00000000
    181      2      Si          0.00000000     0.00000000     0.00000000
    182      2      Si          0.00000000     0.00000000     0.00000000
    183      2      Si          0.00000000     0.00000000     0.00000000
    184      2      Si          0.00000000     0.00000000     0.00000000
    185      2      Si          0.00000000     0.00000000     0.00000000
    186      2      Si          0.00000000     0.00000000     0.00000000
    187      2      Si          0.00000000     0.00000000     0.00000000
    188      2      Si          0.00000000     0.00000000     0.00000000
    189      2      Si          0.00000000     0.00000000     0.00000000
    190      2      Si          0.00000000     0.00000000     0.00000000
    191      2      Si          0.00000000     0.00000000     0.00000000
    192      3      O           0.00000000     0.00000000     0.00000000
    193      3      O           0.00000000     0.00000000     0.00000000
    194      3      O           0.00000000     0.00000000     0.00000000
    195      3      O           0.00000000     0.00000000     0.00000000
    196      3      O           0.00000000     0.00000000     0.00000000
    197      3      O           0.00000000     0.00000000     0.00000000
    198      3      O           0.00000000     0.00000000     0.00000000
    199      3      O           0.00000000     0.00000000     0.00000000
    200      3      O           0.00000000     0.00000000     0.00000000
    201      3      O           0.00000000     0.00000000     0.00000000
    202      3      O           0.00000000     0.00000000     0.00000000
    203      3      O           0.00000000     0.00000000     0.00000000
    204      3      O           0.00000000     0.00000000     0.00000000
    205      3      O           0.00000000     0.00000000     0.00000000
    206      3      O           0.00000000     0.00000000     0.00000000
    207      3      O           0.00000000     0.00000000     0.00000000
    208      3      O           0.00000000     0.00000000     0.00000000
    209      3      O           0.00000000     0.00000000     0.00000000
    210      3      O           0.00000000     0.00000000     0.00000000
    211      3      O           0.00000000     0.00000000     0.00000000
    212      3      O           0.00000000     0.00000000     0.00000000
    213      3      O           0.00000000     0.00000000     0.00000000
    214      3      O           0.00000000     0.00000000     0.00000000
    215      3      O           0.00000000     0.00000000     0.00000000
    216      3      O           0.00000000     0.00000000     0.00000000
    217      3      O           0.00000000     0.00000000     0.00000000
    218      3      O           0.00000000     0.00000000     0.00000000
    219      3      O           0.00000000     0.00000000     0.00000000
    220      3      O           0.00000000     0.00000000     0.00000000
    221      3      O           0.00000000     0.00000000     0.00000000
    222      3      O           0.00000000     0.00000000     0.00000000
    223      3      O           0.00000000     0.00000000     0.00000000
    224      3      O           0.00000000     0.00000000     0.00000000
    225      3      O           0.00000000     0.00000000     0.00000000
    226      3      O           0.00000000     0.00000000     0.00000000
    227      3      O           0.00000000     0.00000000     0.00000000
    228      3      O           0.00000000     0.00000000     0.00000000
    229      3      O           0.00000000     0.00000000     0.00000000
    230      3      O           0.00000000     0.00000000     0.00000000
    231      3      O           0.00000000     0.00000000     0.00000000
    232      3      O           0.00000000     0.00000000     0.00000000
    233      3      O           0.00000000     0.00000000     0.00000000
    234      3      O           0.00000000     0.00000000     0.00000000
    235      3      O           0.00000000     0.00000000     0.00000000
    236      3      O           0.00000000     0.00000000     0.00000000
    237      3      O           0.00000000     0.00000000     0.00000000
    238      3      O           0.00000000     0.00000000     0.00000000
    239      3      O           0.00000000     0.00000000     0.00000000
    240      3      O           0.00000000     0.00000000     0.00000000
    241      3      O           0.00000000     0.00000000     0.00000000
    242      3      O           0.00000000     0.00000000     0.00000000
    243      3      O           0.00000000     0.00000000     0.00000000
    244      3      O           0.00000000     0.00000000     0.00000000
    245      3      O           0.00000000     0.00000000     0.00000000
    246      3      O           0.00000000     0.00000000     0.00000000
    247      3      O           0.00000000     0.00000000     0.00000000
    248      3      O           0.00000000     0.00000000     0.00000000
    249      3      O           0.00000000     0.00000000     0.00000000
    250      3      O           0.00000000     0.00000000     0.00000000
    251      3      O           0.00000000     0.00000000     0.00000000
    252      3      O           0.00000000     0.00000000     0.00000000
    253      3      O           0.00000000     0.00000000     0.00000000
    254      3      O           0.00000000     0.00000000     0.00000000
    255      3      O           0.00000000     0.00000000     0.00000000
    256      3      O           0.00000000     0.00000000     0.00000000
    257      3      O           0.00000000     0.00000000     0.00000000
    258      3      O           0.00000000     0.00000000     0.00000000
    259      3      O           0.00000000     0.00000000     0.00000000
    260      3      O           0.00000000     0.00000000     0.00000000
    261      3      O           0.00000000     0.00000000     0.00000000
    262      3      O           0.00000000     0.00000000     0.00000000
    263      3      O           0.00000000     0.00000000     0.00000000
    264      3      O           0.00000000     0.00000000     0.00000000
    265      3      O           0.00000000     0.00000000     0.00000000
    266      3      O           0.00000000     0.00000000     0.00000000
    267      3      O           0.00000000     0.00000000     0.00000000
    268      3      O           0.00000000     0.00000000     0.00000000
    269      3      O           0.00000000     0.00000000     0.00000000
    270      3      O           0.00000000     0.00000000     0.00000000
    271      3      O           0.00000000     0.00000000     0.00000000
    272      3      O           0.00000000     0.00000000     0.00000000
    273      3      O           0.00000000     0.00000000     0.00000000
    274      3      O           0.00000000     0.00000000     0.00000000
    275      3      O           0.00000000     0.00000000     0.00000000
    276      3      O           0.00000000     0.00000000     0.00000000
    277      3      O           0.00000000     0.00000000     0.00000000
    278      3      O           0.00000000     0.00000000     0.00000000
    279      3      O           0.00000000     0.00000000     0.00000000
    280      3      O           0.00000000     0.00000000     0.00000000
    281      3      O           0.00000000     0.00000000     0.00000000
    282      3      O           0.00000000     0.00000000     0.00000000
    283      3      O           0.00000000     0.00000000     0.00000000
    284      3      O           0.00000000     0.00000000     0.00000000
    285      3      O           0.00000000     0.00000000     0.00000000
    286      3      O           0.00000000     0.00000000     0.00000000
    287      3      O           0.00000000     0.00000000     0.00000000
    288      3      O           0.00000000     0.00000000     0.00000000
    289      3      O           0.00000000     0.00000000     0.00000000
    290      3      O           0.00000000     0.00000000     0.00000000
    291      3      O           0.00000000     0.00000000     0.00000000
    292      3      O           0.00000000     0.00000000     0.00000000
    293      3      O           0.00000000     0.00000000     0.00000000
    294      3      O           0.00000000     0.00000000     0.00000000
    295      3      O           0.00000000     0.00000000     0.00000000
    296      3      O           0.00000000     0.00000000     0.00000000
    297      3      O           0.00000000     0.00000000     0.00000000
    298      3      O           0.00000000     0.00000000     0.00000000
    299      3      O           0.00000000     0.00000000     0.00000000
    300      3      O           0.00000000     0.00000000     0.00000000
    301      3      O           0.00000000     0.00000000     0.00000000
    302      3      O           0.00000000     0.00000000     0.00000000
    303      3      O           0.00000000     0.00000000     0.00000000
    304      3      O           0.00000000     0.00000000     0.00000000
    305      3      O           0.00000000     0.00000000     0.00000000
    306      3      O           0.00000000     0.00000000     0.00000000
    307      3      O           0.00000000     0.00000000     0.00000000
    308      3      O           0.00000000     0.00000000     0.00000000
    309      3      O           0.00000000     0.00000000     0.00000000
    310      3      O           0.00000000     0.00000000     0.00000000
    311      3      O           0.00000000     0.00000000     0.00000000
    312      3      O           0.00000000     0.00000000     0.00000000
    313      3      O           0.00000000     0.00000000     0.00000000
    314      3      O           0.00000000     0.00000000     0.00000000
    315      3      O           0.00000000     0.00000000     0.00000000
    316      3      O           0.00000000     0.00000000     0.00000000
    317      3      O           0.00000000     0.00000000     0.00000000
    318      3      O           0.00000000     0.00000000     0.00000000
    319      3      O           0.00000000     0.00000000     0.00000000
    320      3      O           0.00000000     0.00000000     0.00000000
    321      3      O           0.00000000     0.00000000     0.00000000
    322      3      O           0.00000000     0.00000000     0.00000000
    323      3      O           0.00000000     0.00000000     0.00000000
    324      3      O           0.00000000     0.00000000     0.00000000
    325      3      O           0.00000000     0.00000000     0.00000000
    326      3      O           0.00000000     0.00000000     0.00000000
    327      3      O           0.00000000     0.00000000     0.00000000
    328      3      O           0.00000000     0.00000000     0.00000000
    329      3      O           0.00000000     0.00000000     0.00000000
    330      3      O           0.00000000     0.00000000     0.00000000
    331      3      O           0.00000000     0.00000000     0.00000000
    332      3      O           0.00000000     0.00000000     0.00000000
    333      3      O           0.00000000     0.00000000     0.00000000
    334      3      O           0.00000000     0.00000000     0.00000000
    335      3      O           0.00000000     0.00000000     0.00000000
    336      3      O           0.00000000     0.00000000     0.00000000
    337      3      O           0.00000000     0.00000000     0.00000000
    338      3      O           0.00000000     0.00000000     0.00000000
    339      3      O           0.00000000     0.00000000     0.00000000
    340      3      O           0.00000000     0.00000000     0.00000000
    341      3      O           0.00000000     0.00000000     0.00000000
    342      3      O           0.00000000     0.00000000     0.00000000
    343      3      O           0.00000000     0.00000000     0.00000000
    344      3      O           0.00000000     0.00000000     0.00000000
    345      3      O           0.00000000     0.00000000     0.00000000
    346      3      O           0.00000000     0.00000000     0.00000000
    347      3      O           0.00000000     0.00000000     0.00000000
    348      3      O           0.00000000     0.00000000     0.00000000
    349      3      O           0.00000000     0.00000000     0.00000000
    350      3      O           0.00000000     0.00000000     0.00000000
    351      3      O           0.00000000     0.00000000     0.00000000
    352      3      O           0.00000000     0.00000000     0.00000000
    353      3      O           0.00000000     0.00000000     0.00000000
    354      3      O           0.00000000     0.00000000     0.00000000
    355      3      O           0.00000000     0.00000000     0.00000000
    356      3      O           0.00000000     0.00000000     0.00000000
    357      3      O           0.00000000     0.00000000     0.00000000
    358      3      O           0.00000000     0.00000000     0.00000000
    359      3      O           0.00000000     0.00000000     0.00000000
    360      3      O           0.00000000     0.00000000     0.00000000
    361      3      O           0.00000000     0.00000000     0.00000000
    362      3      O           0.00000000     0.00000000     0.00000000
    363      3      O           0.00000000     0.00000000     0.00000000
    364      3      O           0.00000000     0.00000000     0.00000000
    365      3      O           0.00000000     0.00000000     0.00000000
    366      3      O           0.00000000     0.00000000     0.00000000
    367      3      O           0.00000000     0.00000000     0.00000000
    368      3      O           0.00000000     0.00000000     0.00000000
    369      3      O           0.00000000     0.00000000     0.00000000
[...]
 flops  2023 x   256 x   670        7020199710720       0.0%    100.0%      0.0%
 flops  2020 x   288 x   160        7425677721600       0.0%    100.0%      0.0%
 flops  2020 x   284 x   670        7776484819200       0.0%    100.0%      0.0%
 flops  2023 x   288 x   128        8924047147008       0.0%    100.0%      0.0%
 flops  2020 x   256 x   160        9900903628800       0.0%    100.0%      0.0%
 flops  2020 x   288 x   683       10718699950080       0.0%    100.0%      0.0%
 flops  2023 x   256 x   128       11898729529344       0.0%    100.0%      0.0%
 flops  2020 x   284 x   128       13180577955840       0.0%    100.0%      0.0%
 flops  2020 x   256 x   683       14291599933440       0.0%    100.0%      0.0%
 flops  2020 x   288 x   670       15772025548800       0.0%    100.0%      0.0%
 flops  2020 x   256 x   670       21029367398400       0.0%    100.0%      0.0%
 flops    13 x    13 x   128       23635893775104       0.0%    100.0%      0.0%
 flops  2020 x   288 x   128       26732439797760       0.0%    100.0%      0.0%
 flops  2020 x   256 x   128       35643253063680       0.0%    100.0%      0.0%
 flops    13 x    32 x    13      132918821776000       0.0%    100.0%      0.0%
 flops inhomo. stacks             176950900558080     100.0%      0.0%      0.0%
 flops total                       710.920479E+12      24.9%     75.1%      0.0%
 flops max/rank                     31.585250E+12      25.0%     75.0%      0.0%
 matmuls inhomo. stacks                    517680     100.0%      0.0%      0.0%
 matmuls total                        17059609764       0.0%    100.0%      0.0%
 number of processed stacks              23515595       2.2%     97.8%      0.0%
 average stack size                                     1.0     741.8       0.0
 marketing flops                     1.205366E+15
 -------------------------------------------------------------------------------
 # multiplications                          13914
 max memory usage/rank               1.217942E+09
 # max total images/rank                        3
 # max 3D layers                                1
 # MPI messages exchanged                 6344784
 MPI messages size (bytes):
  total size                        11.406168E+12
  min size                           0.000000E+00
  max size                          11.183144E+06
  average size                       1.797724E+06
 MPI breakdown and total messages size (bytes):
             size <=      128               43248                        0
       128 < size <=     8192                   0                        0
      8192 < size <=    32768                1836                 60162048
     32768 < size <=   131072                 612                 24675840
    131072 < size <=  4194304             6029328            8470199565608
   4194304 < size <= 16777216              269760            2937456609440
  16777216 < size                               0                        0
 -------------------------------------------------------------------------------

 *** WARNING in dbcsr_mm.F:291 :: Using a non-square number of MPI ranks ***
 *** might lead to poor performance. Used ranks: 24 Suggested: 25 49     ***

 -------------------------------------------------------------------------------
 -                                                                             -
 -                      DBCSR MESSAGE PASSING PERFORMANCE                      -
 -                                                                             -
 -------------------------------------------------------------------------------
 ROUTINE             CALLS      AVE VOLUME [Bytes]
 MP_Bcast              142                     12.
 MP_Allreduce        69964                    101.
 MP_Alltoall         64733                 838901.
 MP_ISend           639532                 814451.
 MP_IRecv           629700                 819545.
 -------------------------------------------------------------------------------

 -------------------------------------------------------------------------------
 -                                                                             -
 -                                DBM STATISTICS                               -
 -                                                                             -
 -------------------------------------------------------------------------------
    M  x    N  x    K                                          COUNT     PERCENT
 -------------------------------------------------------------------------------

 -------------------------------------------------------------------------------
 -                                                                             -
 -                                GRID STATISTICS                              -
 -                                                                             -
 -------------------------------------------------------------------------------
 LP    KERNEL             BACKEND                              COUNT     PERCENT
 4     collocate ortho    CPU                              287836594      50.88%
 4     integrate ortho    CPU                              143918297      25.44%
 3     collocate ortho    CPU                               56976584      10.07%
 3     integrate ortho    CPU                               28488292       5.04%
 7     integrate ortho    CPU                               19227647       3.40%
 2     collocate ortho    CPU                               13111706       2.32%
 2     integrate ortho    CPU                                6555853       1.16%
 6     integrate ortho    CPU                                3822996       0.68%
 5     integrate ortho    CPU                                1750818       0.31%
 5     collocate ortho    CPU                                1749734       0.31%
 0     collocate general  CPU                                1051632       0.19%
 3     integrate general  CPU                                1035936       0.18%
 8     integrate ortho    CPU                                 116885       0.02%
 6     collocate ortho    CPU                                  35568       0.01%
 9     integrate ortho    CPU                                   2376       0.00%
 -------------------------------------------------------------------------------

 MEMORY| Estimated peak process memory [MiB]                                1162

 -------------------------------------------------------------------------------
 -                                                                             -
 -                         MESSAGE PASSING PERFORMANCE                         -
 -                                                                             -
 -------------------------------------------------------------------------------

 ROUTINE             CALLS      AVE VOLUME [Bytes]
 MP_Group                5
 MP_Bcast            37073                 228640.
 MP_Allreduce       102211                   1227.
 MP_Sync               806
 MP_Alltoall         17242               33694902.
 MP_SendRecv         74244                 118001.
 MP_ISendRecv        38640                 127093.
 MP_Wait            143383
 MP_comm_split         801
 MP_ISend            93508                 805706.
 MP_IRecv            93508                 806026.
 -------------------------------------------------------------------------------


 -------------------------------------------------------------------------------
 -                                                                             -
 -                           R E F E R E N C E S                               -
 -                                                                             -
 -------------------------------------------------------------------------------
 
 CP2K version 2023.2, the CP2K developers group (2023).
 CP2K is freely available from https://www.cp2k.org/ .

 Kuehne,Thomas D.; Iannuzzi,Marcella; Del Ben,Mauro;
 Rybkin,Vladimir V.; Seewald,Patrick; Stein,Frederick; Laino,Teodoro;
 Khaliullin,Rustam Z.; Schuett,Ole; Schiffmann,Florian; Golze,Dorothea;
 Wilhelm,Jan; Chulkov,Sergey; Bani-Hashemian,Mohammad Hossein;
 Weber,Valery; Borstnik,Urban; Taillefumier,Mathieu;
 Jakobovits,Alice Shoshana; Lazzaro,Alfio; Pabst,Hans; Mueller,Tiziano;
 Schade,Robert; Guidon,Manuel; Andermatt,Samuel; Holmberg,Nico;
 Schenter,Gregory K.; Hehn,Anna; Bussy,Augustin; Belleflamme,Fabian;
 Tabacchi,Gloria; Gloess,Andreas; Lass,Michael; Bethune,Iain;
 Mundy,Christopher J.; Plessl,Christian; Watkins,Matt;
 VandeVondele,Joost; Krack,Matthias; Hutter,Juerg. 
 The Journal of Chemical Physics, 152 (19), (2020). 
 CP2K: An electronic structure and molecular dynamics software package -
 Quickstep: Efficient and accurate electronic structure calculations.
 https://doi.org/10.1063/5.0007045

 Goerigk, Lars; Hansen, Andreas; Bauer, Christoph; Ehrlich, Stephan;
 Najibi, Asim; Grimme, Stefan. , 19 (48), (2017). 
 A look at the density functional theory zoo with the advanced GMTKN55 database
 for general main group thermochemistry, kinetics and noncovalent interactions.
 https://doi.org/10.1039/C7CP04913G

 Schuett, Ole; Messmer, Peter; Hutter, Juerg; VandeVondele, Joost. 
 Electronic Structure Calculations on Graphics Processing Units, John
 Wiley & Sons, Ltd, 173-190 (2016). 
 GPU-Accelerated Sparse Matrix-Matrix Multiplication for
 Linear Scaling Density Functional Theory.
 https://doi.org/10.1002/9781118670712.ch8

 Heinecke, A; Henry, G; Hutchinson, M; Pabst, H. 
 Proceedings of Intl. Supercomputing Conference, 981-991 (2016). 
 LIBXSMM: Accelerating Small Matrix Multiplications
 by Runtime Code Generation.
 https://doi.org/10.1109/SC.2016.83

 Borstnik, U; VandeVondele, J; Weber, V; Hutter, J. 
 PARALLEL COMPUTING, 40 (5-6), 47-58 (2014). 
 Sparse matrix multiplication: The distributed block-compressed sparse
 row library.
 https://doi.org/10.1016/j.parco.2014.03.012

 Hutter, J; Iannuzzi, M; Schiffmann, F; VandeVondele, J. 
 WIREs Comput Mol Sci., 4 (1), 15-25 (2014). 
 CP2K: atomistic simulations of condensed matter systems.
 https://doi.org/10.1002/wcms.1159

 Grimme, S; Ehrlich, S; Goerigk, L. 
 JOURNAL OF COMPUTATIONAL CHEMISTRY, 32, 1456 (2011). 
 Effect of the damping function in dispersion corrected density functional theory.
 https://doi.org/10.1002/jcc.21759

 Grimme, S; Antony, J; Ehrlich, S; Krieg, H. 
 JOURNAL OF CHEMICAL PHYSICS, 132 (15), 154104 (2010). 
 A consistent and accurate ab initio parametrization of density
 functional dispersion correction (DFT-D) for the 94 elements H-Pu.
 https://doi.org/10.1063/1.3382344

 VandeVondele, J; Hutter, J. 
 JOURNAL OF CHEMICAL PHYSICS, 127 (11), 114105 (2007). 
 Gaussian basis sets for accurate calculations on molecular systems in
 gas and condensed phases.
 https://doi.org/10.1063/1.2770708

 Kuhne, TD; Krack, M; Mohamed, FR; Parrinello, M. 
 PHYSICAL REVIEW LETTERS, 98 (6), 066401 (2007). 
 Efficient and accurate Car-Parrinello-like approach to
 Born-Oppenheimer molecular dynamics.
 https://doi.org/10.1103/PhysRevLett.98.066401

 Krack, M. 
 THEORETICAL CHEMISTRY ACCOUNTS, 114 (1-3), 145-152 (2005). 
 Pseudopotentials for H to Kr optimized for gradient-corrected
 exchange-correlation functionals.
 https://doi.org/10.1007/s00214-005-0655-y

 VandeVondele, J; Krack, M; Mohamed, F; Parrinello, M; Chassaing, T;
 Hutter, J. COMPUTER PHYSICS COMMUNICATIONS, 167 (2), 103-128 (2005). 
 QUICKSTEP: Fast and accurate density functional calculations using a
 mixed Gaussian and plane waves approach.
 https://doi.org/10.1016/j.cpc.2004.12.014

 Frigo, M; Johnson, SG. 
 PROCEEDINGS OF THE IEEE, 93 (2), 216-231 (2005). 
 The design and implementation of FFTW3.
 https://doi.org/10.1109/JPROC.2004.840301

 Kolafa, J. 
 JOURNAL OF COMPUTATIONAL CHEMISTRY, 25 (3), 335-342 (2004). 
 Time-reversible always stable predictor-corrector method for
 molecular dynamics of polarizable molecules.
 https://doi.org/10.1002/jcc.10385

 VandeVondele, J; Hutter, J. 
 JOURNAL OF CHEMICAL PHYSICS, 118 (10), 4365-4369 (2003). 
 An efficient orbital transformation method for electronic structure
 calculations.
 https://doi.org/10.1063/1.1543154

 Hartwigsen, C; Goedecker, S; Hutter, J. 
 PHYSICAL REVIEW B, 58 (7), 3641-3662 (1998). 
 Relativistic separable dual-space Gaussian pseudopotentials from H to Rn.
 https://doi.org/10.1103/PhysRevB.58.3641

 Lippert, G; Hutter, J; Parrinello, M. 
 MOLECULAR PHYSICS, 92 (3), 477-487 (1997). 
 A hybrid Gaussian and plane wave density functional scheme.
 https://doi.org/10.1080/002689797170220

 Perdew, JP; Burke, K; Ernzerhof, M. 
 PHYSICAL REVIEW LETTERS, 77 (18), 3865-3868 (1996). 
 Generalized gradient approximation made simple.
 https://doi.org/10.1103/PhysRevLett.77.3865

 Goedecker, S; Teter, M; Hutter, J. 
 PHYSICAL REVIEW B, 54 (3), 1703-1710 (1996). 
 Separable dual-space Gaussian pseudopotentials.
 https://doi.org/10.1103/PhysRevB.54.1703


 -------------------------------------------------------------------------------
 -                                                                             -
 -                                T I M I N G                                  -
 -                                                                             -
 -------------------------------------------------------------------------------
 SUBROUTINE                       CALLS  ASD         SELF TIME        TOTAL TIME
                                MAXIMUM       AVERAGE  MAXIMUM  AVERAGE  MAXIMUM
 CP2K                                 1  1.0    0.024    0.026 5505.361 5505.371
 cp_geo_opt                           1  2.0    0.002    0.002 5504.092 5504.101
 geoopt_bfgs                          1  3.0    0.136    0.154 5504.090 5504.099
 cp_eval_at                          67  4.0    0.013    0.086 5482.209 5482.252
 qs_forces                           66  5.0    0.025    0.026 5444.282 5444.292
 qs_energies                         67  6.0    0.006    0.007 5140.152 5140.298
 scf_env_do_scf                      67  7.0    0.004    0.008 4893.125 4893.226
 scf_env_do_scf_inner_loop          921  8.0    0.024    0.165 3556.450 3557.690
 rebuild_ks_matrix                  987  9.8    0.005    0.005 1820.249 1822.487
 qs_ks_build_kohn_sham_matrix       987 10.8    0.141    0.161 1820.244 1822.482
 qs_ks_update_qs_env                989  9.0    0.008    0.009 1553.947 1555.898
 dbcsr_multiply_generic           13914 13.7    0.959    1.073 1395.260 1402.313
 init_scf_loop                       68  8.0    0.003    0.003 1333.889 1333.924
 qs_scf_new_mos                     921  9.0    0.006    0.007 1294.210 1297.139
 qs_scf_loop_do_ot                  921 10.0    0.006    0.008 1294.204 1297.134
 ot_scf_mini                        921 11.0    0.034    0.042 1201.436 1203.649
 prepare_preconditioner              68  9.0    0.001    0.001 1146.871 1147.302
 pw_transfer                      16530 13.7    0.849    0.879 1121.523 1130.347
 multiply_cannon                  13914 14.7    1.343    1.745 1097.856 1118.603
 fft_wrap_pw1pw2                  14556 14.8    0.150    0.161 1107.480 1116.342
 make_preconditioner                 68 10.0    0.002    0.002 1103.731 1103.884
 multiply_cannon_loop             13914 15.7    2.271    2.459 1048.898 1074.584
 fft_wrap_pw1pw2_180               8364 16.4  181.637  188.597 1064.923 1073.622
 make_full_all                       68 11.0    0.152    0.169 1062.785 1062.816
 qs_vxc_create                      987 11.8    0.023    0.026  997.347 1002.078
 qs_rho_update_rho_low              988  9.1    0.005    0.005  928.051  928.605
 calculate_rho_elec                 988 10.1    3.110    3.201  928.047  928.600
 cp_fm_syevd                        801 13.4    0.010    0.012  825.661  826.454
 cp_fm_redistribute_end             801 14.4  413.603  822.486  414.078  822.501
 cp_fm_syevd_base                   801 14.4  406.377  814.599  406.377  814.599
 multiply_cannon_multrec         166968 16.7  740.047  799.835  740.247  800.041
 fft3d_ps                         14556 16.8  336.390  351.058  744.009  754.788
 xc_vxc_pw_create                   560 12.6   18.547   21.735  719.440  724.174
 xc_pw_derive                      4641 14.7    0.090    0.107  676.939  686.468
 ot_mini                            921 12.0    0.008    0.011  681.098  684.295
 xc_rho_set_and_dset_create         987 13.8    8.864   10.463  635.565  646.047
 sum_up_and_integrate               560 11.6    5.411    5.796  590.202  590.457
 integrate_v_rspace                 560 12.6    0.021    0.024  584.789  585.110
 grid_collocate_task_list           988 11.1  514.452  549.911  514.452  549.911
 mp_waitall_1                    829059 17.8  370.255  435.751  370.255  435.751
 grid_integrate_task_list           560 13.6  413.206  433.041  413.206  433.041
 density_rs2pw                      988 11.1    0.063    0.070  390.046  416.650
 apply_preconditioner_dbcsr         562 14.0    0.002    0.002  402.261  403.509
 apply_all                          562 15.0    0.480    0.550  402.259  403.507
 ot_new_cg_direction                494 13.0    0.010    0.012  360.439  360.440
 multiply_cannon_metrocomm3      166968 16.7    0.626    0.776  294.814  358.848
 xc_pw_divergence                   560 13.6    0.035    0.039  328.717  337.883
 qs_ot_get_derivative               494 13.0    0.006    0.008  317.253  319.936
 xc_exc_calc                        427 13.0    1.310    1.318  277.884  277.884
 x_to_yz                           7309 18.5  183.322  188.099  262.602  276.242
 qs_ks_update_qs_env_forces          66  6.0    0.000    0.001  269.376  269.627
 make_m2s                         27828 14.7    0.812    0.941  227.471  230.494
 qs_ot_get_p                        989 11.9    0.007    0.012  211.930  217.800
 rs_pw_transfer                    7873 12.9    0.089    0.096  159.923  188.762
 xc_functional_eval                 987 14.8    0.010    0.012  183.183  188.082
 pbe_lda_eval                       987 15.8  183.173  188.070  183.173  188.070
 init_scf_run                        67  7.0    0.002    0.004  181.911  181.945
 scf_env_initial_rho_setup           67  8.0    0.001    0.002  181.909  181.940
 wfi_extrapolate                     67  9.0    0.010    0.011  178.982  178.982
 parallel_gemm_fm                  1114 10.2    0.004    0.004  175.048  175.808
 parallel_gemm_fm_gemm             1114 11.2    0.004    0.005  175.044  175.804
 cp_fm_gemm                        1114 12.2  175.040  175.800  175.040  175.800
 make_images                      27828 15.7    3.596    3.754  167.712  170.978
 mp_alltoall_z22v                 14556 18.8  129.666  166.313  129.666  166.313
 yz_to_x                           7247 17.1   94.322   95.658  144.707  160.587
 qs_ot_get_orbitals                 921 12.0    0.007    0.008  152.959  154.422
 potential_pw2rs                    560 13.6    0.187    0.253  145.792  146.041
 cp_dbcsr_syevd                     667 13.5    0.051    0.075  139.853  140.449
 qs_ot_p2m_diag                     531 13.0    2.341    2.590  129.768  130.301
 cp_fm_cholesky_reduce               68 12.0  114.785  114.829  114.785  114.829
 qs_ot_get_derivative_diag          263 14.0    0.008    0.012  111.937  113.627
 -------------------------------------------------------------------------------

 The number of warnings for this run is : 2
 
 -------------------------------------------------------------------------------
  **** **** ******  **  PROGRAM ENDED AT                 2025-01-28 15:56:19.986
 ***** ** ***  *** **   PROGRAM RAN ON                         c0219.ten.osc.edu
 **    ****   ******    PROGRAM RAN BY                                   xiutinc
 ***** **    ** ** **   PROGRAM PROCESS ID                                271372
  **** **  *******  **  PROGRAM STOPPED IN /fs/scratch/PAS2536/xiutinc/386228.ad
                                           l02_01_02_propanol
