ITEM: TIMESTEP
4000000
ITEM: NUMBER OF ATOMS
4761
ITEM: BOX BOUNDS pp pp pp
0.0000000000000000e+00 2.4433001000000001e+01
0.0000000000000000e+00 2.4433001000000001e+01
0.0000000000000000e+00 8.6882897779454566e+01
ITEM: ATOMS id mol type q x y z 
1 1 1 -0.834 23.9127 14.5189 22.7032 
2 1 1 -0.834 0.890007 18.8958 67.0558 
3 1 1 -0.834 24.2845 4.97963 74.7188 
4 1 1 -0.834 18.5682 13.517 37.8565 
5 1 1 -0.834 2.13342 7.92851 76.5878 
6 1 1 -0.834 10.6453 8.99522 65.6426 
7 1 1 -0.834 10.9307 4.73075 75.9307 
8 1 1 -0.834 9.54077 3.75363 57.8068 
9 1 1 -0.834 16.7653 3.08059 18.7411 
10 1 1 -0.834 19.9869 2.26531 82.6493 
11 1 1 -0.834 9.86325 22.8533 41.4842 
12 1 1 -0.834 17.952 4.47599 23.4934 
13 1 1 -0.834 16.1567 9.6988 56.7787 
14 1 1 -0.834 5.21247 3.90643 78.2303 
15 1 1 -0.834 4.71941 0.372692 38.0731 
16 1 1 -0.834 20.693 21.4965 61.0467 
17 1 1 -0.834 6.33916 19.0788 13.0126 
18 1 1 -0.834 7.66952 13.1095 43.4819 
19 1 1 -0.834 16.7626 13.8949 46.8787 
20 1 1 -0.834 4.60069 20.7551 14.4673 
21 1 1 -0.834 21.3415 12.0995 12.7031 
22 1 1 -0.834 20.8546 5.8826 52.5797 
23 1 1 -0.834 2.65551 13.518 17.3693 
24 1 1 -0.834 0.068998 18.3641 72.5238 
25 1 1 -0.834 9.20024 0.733192 46.1348 
26 1 1 -0.834 7.83802 4.54848 43.5815 
27 1 1 -0.834 24.1356 24.3812 3.54347 
28 1 1 -0.834 23.4985 6.58003 80.2131 
29 1 1 -0.834 20.9196 17.047 55.5813 
30 1 1 -0.834 23.9233 21.1129 43.3046 
31 1 1 -0.834 20.4187 10.2561 77.0917 
32 1 1 -0.834 16.1978 23.7016 80.8905 
33 1 1 -0.834 12.0411 11.3612 75.7841 
34 1 1 -0.834 4.01246 6.75524 59.7569 
35 1 1 -0.834 22.3354 11.3715 37.6584 
36 1 1 -0.834 19.6951 21.0653 52.4405 
37 1 1 -0.834 13.6242 5.17227 71.4662 
38 1 1 -0.834 5.45399 14.652 61.4694 
39 1 1 -0.834 17.1111 22.8567 78.3756 
40 1 1 -0.834 10.0362 12.2485 51.7571 
41 1 1 -0.834 15.0884 11.3898 75.9715 
42 1 1 -0.834 23.3639 17.932 85.4693 
43 1 1 -0.834 7.46979 21.8937 37.0801 
44 1 1 -0.834 7.18632 0.557604 35.3068 
45 1 1 -0.834 3.56486 11.2011 52.5461 
46 1 1 -0.834 1.05662 7.66302 58.1644 
47 1 1 -0.834 21.019 13.7438 52.6978 
48 1 1 -0.834 7.65541 9.42173 78.5543 
49 1 1 -0.834 10.9098 11.3548 64.1483 
50 1 1 -0.834 7.27678 22.1114 67.4114 
51 1 1 -0.834 21.052 15.9896 67.4876 
52 1 1 -0.834 19.2264 3.50693 48.3182 
53 1 1 -0.834 7.466 22.2308 39.913 
54 1 1 -0.834 16.78 19.1411 70.9594 
55 1 1 -0.834 13.0713 16.8756 62.8065 
56 1 1 -0.834 14.7535 13.7594 59.9234 
57 1 1 -0.834 15.3259 4.67518 80.4123 
58 1 1 -0.834 4.53788 10.2814 45.9737 
59 1 1 -0.834 8.24038 10.2987 2.03577 
60 1 1 -0.834 2.07891 9.08319 39.7647 
61 1 1 -0.834 1.21877 1.50468 79.0536 
62 1 1 -0.834 10.059 21.2143 10.484 
63 1 1 -0.834 19.8241 22.7466 85.7521 
64 1 1 -0.834 13.8411 21.4868 48.7581 
65 1 1 -0.834 2.32128 11.4719 19.3397 
66 1 1 -0.834 0.0405845 15.6826 0.0927764 
67 1 1 -0.834 11.1391 18.491 59.8863 
68 1 1 -0.834 20.7589 11.2113 47.9847 
69 1 1 -0.834 2.27663 17.9168 85.9566 
70 1 1 -0.834 12.3212 7.75827 70.9565 
71 1 1 -0.834 2.50334 6.19092 11.1294 
72 1 1 -0.834 1.33335 12.5576 43.82 
73 1 1 -0.834 9.03968 14.3295 27.2527 
74 1 1 -0.834 23.2723 3.02952 45.4177 
75 1 1 -0.834 3.20174 22.5031 64.9207 
76 1 1 -0.834 6.76681 3.51924 6.80814 
77 1 1 -0.834 6.51021 18.855 20.3595 
78 1 1 -0.834 8.38486 21.5725 44.3967 
79 1 1 -0.834 13.5059 24.1988 53.4109 
80 1 1 -0.834 1.09758 1.00686 44.8355 
81 1 1 -0.834 20.6132 1.20443 59.0524 
82 1 1 -0.834 7.14454 14.1296 86.2646 
83 1 1 -0.834 14.9418 23.4817 63.3426 
84 1 1 -0.834 7.31699 16.485 73.1492 
85 1 1 -0.834 17.1419 11.6678 52.4594 
86 1 1 -0.834 11.3491 3.30405 59.9775 
87 1 1 -0.834 4.71008 12.7807 43.6919 
88 1 1 -0.834 7.8446 14.8642 54.6184 
89 1 1 -0.834 13.2092 9.81316 58.683 
90 1 1 -0.834 16.0065 22.8976 65.6902 
91 1 1 -0.834 10.9233 7.0192 3.41461 
92 1 1 -0.834 4.11455 14.7149 41.5392 
93 1 1 -0.834 1.51516 1.0944 49.5975 
94 1 1 -0.834 1.55353 21.1846 57.098 
95 1 1 -0.834 21.5861 21.1468 78.2859 
96 1 1 -0.834 8.11964 22.3451 77.2953 
97 1 1 -0.834 15.9267 20.3386 62.9202 
98 1 1 -0.834 15.5461 6.11511 43.6667 
99 1 1 -0.834 13.4221 14.9272 71.6459 
100 1 1 -0.834 14.4485 1.98937 21.8313 
101 1 1 -0.834 6.24957 13.4179 81.1401 
102 1 1 -0.834 22.4868 20.3508 73.4991 
103 1 1 -0.834 19.9279 20.1231 4.0498 
104 1 1 -0.834 17.9372 9.58685 65.7417 
105 1 1 -0.834 23.2299 17.5821 23.0609 
106 1 1 -0.834 16.9051 6.68819 78.9716 
107 1 1 -0.834 4.61479 20.3381 70.6218 
108 1 1 -0.834 3.42892 15.5337 73.9656 
109 1 1 -0.834 17.0691 1.05656 53.9072 
110 1 1 -0.834 21.5044 4.65372 73.8866 
111 1 1 -0.834 23.8704 19.1491 45.1029 
112 1 1 -0.834 21.4028 20.749 65.2261 
113 1 1 -0.834 2.8879 3.07191 58.7939 
114 1 1 -0.834 4.30529 23.6455 12.6477 
115 1 1 -0.834 9.90818 10.1272 44.0264 
116 1 1 -0.834 1.96364 4.16324 66.0762 
117 1 1 -0.834 11.2044 17.5644 35.0448 
118 1 1 -0.834 21.5116 21.5792 32.1416 
119 1 1 -0.834 4.10011 15.4119 53.3574 
120 1 1 -0.834 20.606 20.7966 75.5628 
121 1 1 -0.834 9.2141 19.3443 12.2879 
122 1 1 -0.834 13.3337 21.7156 45.1235 
123 1 1 -0.834 20.1021 0.83531 43.3675 
124 1 1 -0.834 18.5974 8.77841 43.6928 
125 1 1 -0.834 2.73201 17.8469 69.165 
126 1 1 -0.834 22.6637 23.5126 59.3763 
127 1 1 -0.834 9.99057 12.7588 54.6742 
128 1 1 -0.834 3.88924 20.5922 59.025 
129 1 1 -0.834 7.39218 11.5052 46.2231 
130 1 1 -0.834 18.9554 22.1339 42.4357 
131 1 1 -0.834 15.0517 3.08421 82.5734 
132 1 1 -0.834 2.28827 19.6973 73.6295 
133 1 1 -0.834 6.23088 2.65967 60.4688 
134 1 1 -0.834 2.57122 3.08245 7.30699 
135 1 1 -0.834 13.9463 12.8142 79.1794 
136 1 1 -0.834 12.3969 5.97186 81.7057 
137 1 1 -0.834 11.4705 1.96131 56.5223 
138 1 1 -0.834 18.2061 6.54176 57.7364 
139 1 1 -0.834 11.0691 13.8669 29.6235 
140 1 1 -0.834 19.126 5.29469 50.2376 
141 1 1 -0.834 12.6983 6.33143 56.4061 
142 1 1 -0.834 19.0368 11.7503 61.0899 
143 1 1 -0.834 20.0388 12.2854 50.6692 
144 1 1 -0.834 0.6014 23.3052 54.1132 
145 1 1 -0.834 10.7024 15.8868 64.5525 
146 1 1 -0.834 14.7171 21.2197 67.5388 
147 1 1 -0.834 16.6636 19.8408 5.59112 
148 1 1 -0.834 22.0164 16.4307 28.0452 
149 1 1 -0.834 9.80886 13.2501 68.4877 
150 1 1 -0.834 12.9059 23.6501 68.2134 
151 1 1 -0.834 9.46595 16.6847 39.9497 
152 1 1 -0.834 5.84272 10.6822 23.6306 
153 1 1 -0.834 3.55936 12.1748 84.9092 
154 1 1 -0.834 6.37259 8.20984 70.4561 
155 1 1 -0.834 22.2512 12.2796 41.6277 
156 1 1 -0.834 23.3147 6.27628 15.6887 
157 1 1 -0.834 2.28329 14.1795 63.4673 
158 1 1 -0.834 3.75721 0.103942 80.1347 
159 1 1 -0.834 4.55396 1.77276 52.7541 
160 1 1 -0.834 9.31029 9.70363 48.9334 
161 1 1 -0.834 14.742 0.830242 78.3612 
162 1 1 -0.834 8.46623 21.0918 19.7548 
163 1 1 -0.834 14.3968 18.3852 75.8234 
164 1 1 -0.834 16.542 9.38827 77.74 
165 1 1 -0.834 17.2871 18.175 10.0485 
166 1 1 -0.834 2.89486 6.65917 66.3182 
167 1 1 -0.834 20.9807 22.698 49.673 
168 1 1 -0.834 19.743 0.942488 23.8707 
169 1 1 -0.834 5.85391 15.0404 45.0607 
170 1 1 -0.834 13.5212 22.6497 77.2786 
171 1 1 -0.834 3.59322 9.51865 50.2139 
172 1 1 -0.834 14.4431 16.0644 52.0639 
173 1 1 -0.834 20.8249 20.4223 44.4847 
174 1 1 -0.834 20.0391 17.2317 43.5748 
175 1 1 -0.834 13.4083 4.20527 18.7139 
176 1 1 -0.834 7.81931 8.67213 59.9764 
177 1 1 -0.834 20.2108 3.09511 21.9089 
178 1 1 -0.834 9.44075 10.0529 31.9856 
179 1 1 -0.834 0.17126 20.6285 23.9384 
180 1 1 -0.834 20.1858 13.0378 74.8501 
181 1 1 -0.834 15.3138 2.68653 52.5002 
182 1 1 -0.834 6.89275 7.03146 49.823 
183 1 1 -0.834 12.5138 10.9609 50.7369 
184 1 1 -0.834 23.3311 17.6859 25.7545 
185 1 1 -0.834 3.71498 11.5545 66.9048 
186 1 1 -0.834 1.96571 5.92591 80.3898 
187 1 1 -0.834 17.8923 9.59933 16.3135 
188 1 1 -0.834 13.887 0.792271 81.1532 
189 1 1 -0.834 18.9969 4.86922 20.2772 
190 1 1 -0.834 8.86898 14.3505 50.2565 
191 1 1 -0.834 12.5095 13.8229 52.3911 
192 1 1 -0.834 21.415 6.30688 18.0796 
193 1 1 -0.834 23.1239 11.5543 53.5584 
194 1 1 -0.834 19.46 20.0846 72.2033 
195 1 1 -0.834 23.5388 9.78141 39.6585 
196 1 1 -0.834 0.669251 23.2194 31.5761 
197 1 1 -0.834 20.4459 21.6963 25.2989 
198 1 1 -0.834 4.08639 14.3825 77.1396 
199 1 1 -0.834 22.9597 3.60354 32.8605 
200 1 1 -0.834 12.8255 2.36585 65.7645 
201 1 1 -0.834 7.56144 16.5021 58.3015 
202 1 1 -0.834 10.2747 6.51119 58.1832 
203 1 1 -0.834 18.6529 1.19092 74.1122 
204 1 1 -0.834 1.35325 7.11708 73.8961 
205 1 1 -0.834 4.0294 13.8079 82.6898 
206 1 1 -0.834 16.3 3.12206 55.7965 
207 1 1 -0.834 7.7882 7.97298 57.1804 
208 1 1 -0.834 22.717 3.04019 8.90209 
209 1 1 -0.834 13.7738 24.2695 43.751 
210 1 1 -0.834 18.2026 19.4165 75.7649 
211 1 1 -0.834 0.976207 13.9442 77.3247 
212 1 1 -0.834 0.27604 23.5252 79.7476 
213 1 1 -0.834 0.191657 20.8471 1.41875 
214 1 1 -0.834 11.8531 8.84154 86.3239 
215 1 1 -0.834 17.4256 10.6815 73.5184 
216 1 1 -0.834 16.3637 2.87797 24.914 
217 1 1 -0.834 13.5248 18.8775 67.6401 
218 1 1 -0.834 23.6539 16.071 46.6068 
219 1 1 -0.834 6.82627 0.00382835 15.1971 
220 1 1 -0.834 14.4126 21.4857 52.3546 
221 1 1 -0.834 20.2412 2.79191 66.6273 
222 1 1 -0.834 16.4913 12.3792 55.7102 
223 1 1 -0.834 16.2608 21.325 2.89005 
224 1 1 -0.834 3.78234 1.20565 77.6316 
225 1 1 -0.834 17.4151 13.9094 60.2522 
226 1 1 -0.834 12.1314 8.99951 25.3434 
227 1 1 -0.834 23.7576 16.8364 76.9369 
228 1 1 -0.834 10.3543 22.861 74.0771 
229 1 1 -0.834 5.09848 7.06547 43.3032 
230 1 1 -0.834 22.4829 7.20177 55.8248 
231 1 1 -0.834 15.8749 1.32481 44.7604 
232 1 1 -0.834 2.81032 8.73058 54.67 
233 1 1 -0.834 1.98475 23.1802 60.2261 
234 1 1 -0.834 18.713 6.13887 81.1196 
235 1 1 -0.834 2.11978 16.8609 55.3881 
236 1 1 -0.834 18.1885 11.3175 45.6012 
237 1 1 -0.834 14.0233 9.24895 27.2984 
238 1 1 -0.834 10.1744 23.3624 71.3646 
239 1 1 -0.834 10.814 5.40193 70.2594 
240 1 1 -0.834 5.4049 7.9257 6.57172 
241 1 1 -0.834 10.6414 24.2837 51.0254 
242 1 1 -0.834 14.7694 13.3717 53.8121 
243 1 1 -0.834 1.70789 1.4339 35.6214 
244 1 1 -0.834 0.503856 2.53925 72.3613 
245 1 1 -0.834 12.3755 5.37358 65.2553 
246 1 1 -0.834 12.4827 9.55557 73.562 
247 1 1 -0.834 8.12127 12.3365 61.3579 
248 1 1 -0.834 10.7995 7.44208 76.3819 
249 1 1 -0.834 9.70229 14.0747 71.7661 
250 1 1 -0.834 18.8784 1.00448 49.8026 
251 1 1 -0.834 18.3824 15.4108 49.2501 
252 1 1 -0.834 18.3235 22.5064 49.8399 
253 1 1 -0.834 0.0265157 5.97177 33.2649 
254 1 1 -0.834 22.6802 13.0951 44.6667 
255 1 1 -0.834 22.6793 17.1599 50.4377 
256 1 1 -0.834 13.7667 1.73548 49.9078 
257 1 1 -0.834 3.64009 1.65323 82.5007 
258 1 1 -0.834 21.7834 20.0524 23.3805 
259 1 1 -0.834 0.901576 6.54513 51.1722 
260 1 1 -0.834 5.70606 11.5719 48.5952 
261 1 1 -0.834 3.88882 8.15414 69.2525 
262 1 1 -0.834 6.9091 18.253 15.7844 
263 1 1 -0.834 15.7185 10.4638 8.72313 
264 1 1 -0.834 9.11691 18.1828 53.1842 
265 1 1 -0.834 2.98332 9.07287 42.8481 
266 1 1 -0.834 2.20064 10.4212 72.7061 
267 1 1 -0.834 2.50669 5.85281 68.8338 
268 1 1 -0.834 11.1568 16.4368 32.4255 
269 1 1 -0.834 10.4551 10.2745 70.8944 
270 1 1 -0.834 23.9611 6.84377 66.9492 
271 1 1 -0.834 21.0791 6.66482 61.4885 
272 1 1 -0.834 21.9048 18.3854 5.27104 
273 1 1 -0.834 12.4006 11.02 31.7097 
274 1 1 -0.834 0.626008 9.10005 13.1867 
275 1 1 -0.834 23.4454 22.2052 75.2656 
276 1 1 -0.834 23.7829 20.9387 5.25703 
277 1 1 -0.834 6.7767 4.52317 68.3656 
278 1 1 -0.834 7.35245 13.7008 58.9709 
279 1 1 -0.834 7.82241 5.47935 59.7615 
280 1 1 -0.834 2.07867 12.8704 23.6543 
281 1 1 -0.834 10.8827 17.2099 75.2836 
282 1 1 -0.834 7.55884 11.6994 56.9923 
283 1 1 -0.834 7.11071 19.1737 72.7349 
284 1 1 -0.834 1.76185 23.9676 57.314 
285 1 1 -0.834 16.931 17.126 78.6334 
286 1 1 -0.834 23.7587 9.37096 54.8957 
287 1 1 -0.834 12.4768 6.29445 67.7605 
288 1 1 -0.834 18.7234 16.9981 69.1163 
289 1 1 -0.834 17.7473 10.1774 48.9255 
290 1 1 -0.834 14.9811 12.5848 67.3823 
291 1 1 -0.834 14.7063 2.67488 1.83861 
292 1 1 -0.834 7.99159 5.67441 28.8682 
293 1 1 -0.834 13.795 14.3611 48.0971 
294 1 1 -0.834 14.2261 22.8855 73.3352 
295 1 1 -0.834 20.8173 11.5685 16.5307 
296 1 1 -0.834 0.566189 6.80748 54.1549 
297 1 1 -0.834 14.0229 6.94406 79.041 
298 1 1 -0.834 17.7011 3.62825 45.884 
299 1 1 -0.834 1.77766 12.6152 80.5268 
300 1 1 -0.834 0.164647 1.26933 59.7454 
301 1 1 -0.834 2.59327 5.13421 49.3555 
302 1 1 -0.834 20.6995 2.09817 72.1762 
303 1 1 -0.834 18.3049 6.57534 76.4352 
304 1 1 -0.834 7.02479 4.16883 50.4858 
305 1 1 -0.834 14.7675 24.0943 56.074 
306 1 1 -0.834 19.7951 5.99046 40.5644 
307 1 1 -0.834 7.03174 0.920138 76.8298 
308 1 1 -0.834 23.7091 9.84751 62.9158 
309 1 1 -0.834 7.31208 8.79351 44.969 
310 1 1 -0.834 18.4463 9.61272 40.524 
311 1 1 -0.834 12.3109 0.404967 62.7262 
312 1 1 -0.834 4.25778 17.7159 49.0326 
313 1 1 -0.834 12.2763 10.0881 67.9051 
314 1 1 -0.834 23.7301 14.4578 52.006 
315 1 1 -0.834 18.9196 8.75504 81.5316 
316 1 1 -0.834 11.5134 20.7481 36.9497 
317 1 1 -0.834 21.0391 4.58993 15.0541 
318 1 1 -0.834 4.32459 19.9219 65.3068 
319 1 1 -0.834 3.30648 0.261339 7.28752 
320 1 1 -0.834 5.11395 19.9991 38.7613 
321 1 1 -0.834 0.151471 18.5521 79.3578 
322 1 1 -0.834 3.621 16.7826 81.9221 
323 1 1 -0.834 13.7128 15.1919 56.2489 
324 1 1 -0.834 20.9364 6.22543 67.0747 
325 1 1 -0.834 13.7738 14.5111 31.0114 
326 1 1 -0.834 11.0388 20.2013 76.9984 
327 1 1 -0.834 0.958549 0.709828 28.9914 
328 1 1 -0.834 19.6589 19.6574 6.75428 
329 1 1 -0.834 9.43759 16.7261 70.7337 
330 1 1 -0.834 11.7159 16.9807 37.7345 
331 1 1 -0.834 21.4373 8.59365 81.9698 
332 1 1 -0.834 12.4335 18.4568 46.3967 
333 1 1 -0.834 8.89789 7.03828 68.93 
334 1 1 -0.834 7.67092 20.6931 70.5719 
335 1 1 -0.834 8.82505 5.71782 1.01372 
336 1 1 -0.834 1.6467 22.4804 74.7152 
337 1 1 -0.834 23.3823 20.285 52.8367 
338 1 1 -0.834 18.9118 4.34828 68.6023 
339 1 1 -0.834 21.1201 14.8711 42.2221 
340 1 1 -0.834 20.6298 13.4327 55.4099 
341 1 1 -0.834 7.11929 8.15931 23.9749 
342 1 1 -0.834 0.915581 19.3762 26.8658 
343 1 1 -0.834 3.74496 16.6951 17.7751 
344 1 1 -0.834 4.36582 22.5406 75.0748 
345 1 1 -0.834 7.98946 10.3724 63.325 
346 1 1 -0.834 22.8743 12.8391 49.8933 
347 1 1 -0.834 1.52357 14.9524 45.0975 
348 1 1 -0.834 5.80739 0.581304 31.8906 
349 1 1 -0.834 19.0534 0.0739344 71.2256 
350 1 1 -0.834 7.45423 4.18927 53.8861 
351 1 1 -0.834 5.37132 0.481991 66.3825 
352 1 1 -0.834 8.69342 0.716627 73.5532 
353 1 1 -0.834 11.9018 17.6302 72.5935 
354 1 1 -0.834 11.2312 13.7655 9.43486 
355 1 1 -0.834 4.59742 11.8599 60.8269 
356 1 1 -0.834 20.8555 13.7052 14.861 
357 1 1 -0.834 1.36257 13.4929 70.2611 
358 1 1 -0.834 11.8452 24.2247 45.7459 
359 1 1 -0.834 15.0726 6.36298 69.1286 
360 1 1 -0.834 12.3882 12.3183 72.6622 
361 1 1 -0.834 23.9826 8.38067 17.2795 
362 1 1 -0.834 5.69588 18.4853 44.0984 
363 1 1 -0.834 11.7842 21.5176 54.9719 
364 1 1 -0.834 13.0645 9.49011 61.7789 
365 1 1 -0.834 22.7025 16.4114 61.1618 
366 1 1 -0.834 7.24985 17.9758 38.9465 
367 1 1 -0.834 21.0558 18.4486 29.5665 
368 1 1 -0.834 20.6943 15.1043 77.7475 
369 1 1 -0.834 11.763 19.3119 70.4565 
370 1 1 -0.834 12.1345 9.81238 29.1442 
371 1 1 -0.834 1.334 16.0092 83.8644 
372 1 1 -0.834 12.9179 12.1229 4.1427 
373 1 1 -0.834 24.1756 6.05305 10.1266 
374 1 1 -0.834 7.15517 19.3848 51.6268 
375 1 1 -0.834 5.78593 2.05763 48.7695 
376 1 1 -0.834 10.2756 3.55584 21.088 
377 1 1 -0.834 6.67917 23.1983 64.7666 
378 1 1 -0.834 2.12156 6.34406 61.7022 
379 1 1 -0.834 15.465 13.9929 73.3899 
380 1 1 -0.834 20.261 4.60723 44.3927 
381 1 1 -0.834 11.9931 2.00336 52.0499 
382 1 1 -0.834 1.90336 21.6579 67.6098 
383 1 1 -0.834 23.3461 10.9322 18.9035 
384 1 1 -0.834 20.4798 22.5214 72.6817 
385 1 1 -0.834 13.3513 17.2406 30.7962 
386 1 1 -0.834 16.3788 21.7909 58.4218 
387 1 1 -0.834 23.4299 4.32375 54.839 
388 1 1 -0.834 17.0454 14.2948 77.6958 
389 1 1 -0.834 8.81278 7.62243 73.3574 
390 1 1 -0.834 2.14429 3.53889 10.1604 
391 1 1 -0.834 15.3149 7.2456 65.6899 
392 1 1 -0.834 0.473849 7.95578 42.0204 
393 1 1 -0.834 11.9139 19.7941 52.622 
394 1 1 -0.834 2.09943 9.31778 67.4479 
395 1 1 -0.834 16.5532 3.15322 77.8902 
396 1 1 -0.834 2.49012 3.81174 70.5295 
397 1 1 -0.834 23.3854 1.38871 62.3328 
398 1 1 -0.834 21.9079 3.07352 42.5671 
399 1 1 -0.834 24.3316 17.4078 20.367 
400 1 1 -0.834 24.2167 22.1107 48.1213 
401 1 1 -0.834 17.6419 5.81916 66.8427 
402 1 1 -0.834 4.36078 14.2806 48.595 
403 1 1 -0.834 2.03252 15.4629 66.1604 
404 1 1 -0.834 6.15019 21.4758 48.5428 
405 1 1 -0.834 1.85703 19.3261 43.6137 
406 1 1 -0.834 5.24988 14.287 18.8731 
407 1 1 -0.834 1.98586 3.22508 74.6629 
408 1 1 -0.834 22.8322 10.9411 46.3217 
409 1 1 -0.834 10.9596 18.4853 66.3563 
410 1 1 -0.834 9.7339 7.14795 25.5821 
411 1 1 -0.834 11.1661 12.7506 79.4941 
412 1 1 -0.834 17.1903 20.7819 68.776 
413 1 1 -0.834 9.93955 5.11547 62.3071 
414 1 1 -0.834 8.03169 12.3461 23.2736 
415 1 1 -0.834 12.5511 18.7908 13.9619 
416 1 1 -0.834 5.52054 9.27609 26.7112 
417 1 1 -0.834 6.23538 0.580527 7.52946 
418 1 1 -0.834 21.0554 24.1213 3.03045 
419 1 1 -0.834 0.230679 4.16533 61.3768 
420 1 1 -0.834 7.16023 21.0402 15.62 
421 1 1 -0.834 19.5884 8.78527 67.6321 
422 1 1 -0.834 9.81687 12.0776 5.80565 
423 1 1 -0.834 23.0519 20.9414 62.259 
424 1 1 -0.834 15.9063 20.2477 74.0256 
425 1 1 -0.834 10.6535 13.7193 62.7723 
426 1 1 -0.834 18.0333 10.2086 58.8151 
427 1 1 -0.834 1.13155 6.11003 47.0881 
428 1 1 -0.834 0.799486 8.95463 47.6782 
429 1 1 -0.834 1.2745 13.8575 41.4153 
430 1 1 -0.834 3.07664 5.73841 54.1451 
431 1 1 -0.834 7.6157 1.73756 57.8978 
432 1 1 -0.834 13.2209 18.9246 56.31 
433 1 1 -0.834 4.23033 5.8752 72.7474 
434 1 1 -0.834 20.9476 0.257591 65.461 
435 1 1 -0.834 21.739 11.0186 68.4571 
436 1 1 -0.834 3.11798 10.6118 82.5618 
437 1 1 -0.834 15.5768 4.27553 65.4441 
438 1 1 -0.834 17.5663 0.626186 67.1542 
439 1 1 -0.834 10.8572 24.3692 81.8322 
440 1 1 -0.834 4.27872 14.6133 79.8661 
441 1 1 -0.834 11.1872 17.9077 16.3537 
442 1 1 -0.834 4.34915 11.5807 80.1164 
443 1 1 -0.834 18.1554 15.5261 45.3064 
444 1 1 -0.834 5.87539 18.9466 75.0379 
445 1 1 -0.834 11.8093 2.42683 71.9328 
446 1 1 -0.834 3.06324 7.71535 8.67893 
447 1 1 -0.834 14.0632 18.1982 53.7623 
448 1 1 -0.834 0.170733 16.3826 63.2763 
449 1 1 -0.834 4.65313 5.18968 5.31133 
450 1 1 -0.834 21.217 9.79685 10.8604 
451 1 1 -0.834 24.2835 19.9457 50.3079 
452 1 1 -0.834 14.6471 14.4599 62.6122 
453 1 1 -0.834 4.53183 19.5434 78.6725 
454 1 1 -0.834 1.06597 9.93144 60.559 
455 1 1 -0.834 16.8711 16.128 5.46049 
456 1 1 -0.834 18.6097 7.68474 74.1423 
457 1 1 -0.834 12.0112 18.8962 79.383 
458 1 1 -0.834 4.3766 18.5493 51.5213 
459 1 1 -0.834 17.6091 13.5475 71.2098 
460 1 1 -0.834 6.53857 17.2153 78.3366 
461 1 1 -0.834 13.5071 9.80768 78.172 
462 1 1 -0.834 11.4684 11.6735 46.014 
463 1 1 -0.834 10.3929 5.71509 43.1973 
464 1 1 -0.834 9.95452 16.4051 48.9714 
465 1 1 -0.834 19.3343 12.7776 78.9585 
466 1 1 -0.834 18.1022 3.94016 86.5547 
467 1 1 -0.834 4.59296 9.01418 78.1315 
468 1 1 -0.834 13.3793 11.4687 47.9697 
469 1 1 -0.834 9.92183 3.96396 65.7848 
470 1 1 -0.834 19.7085 14.3228 69.5703 
471 1 1 -0.834 15.0312 7.59428 58.6514 
472 1 1 -0.834 21.1751 0.223415 26.2698 
473 1 1 -0.834 9.93804 10.4524 60.363 
474 1 1 -0.834 17.5692 5.18859 41.8846 
475 1 1 -0.834 16.9766 4.97112 63.027 
476 1 1 -0.834 20.2136 4.72954 77.7202 
477 1 1 -0.834 19.1644 7.95159 63.5142 
478 1 1 -0.834 6.71607 13.588 25.486 
479 1 1 -0.834 12.7689 2.12886 24.2937 
480 1 1 -0.834 2.67754 22.874 33.5299 
481 1 1 -0.834 18.8023 5.34014 60.8152 
482 1 1 -0.834 1.20638 16.383 49.7522 
483 1 1 -0.834 23.4296 1.62416 66.4148 
484 1 1 -0.834 4.79203 6.57849 52.008 
485 1 1 -0.834 6.75606 22.1697 51.4151 
486 1 1 -0.834 9.97578 10.1227 57.4759 
487 1 1 -0.834 12.827 5.1581 53.9604 
488 1 1 -0.834 21.3797 8.899 74.4302 
489 1 1 -0.834 23.3519 9.66002 77.4365 
490 1 1 -0.834 18.6964 16.6159 76.5151 
491 1 1 -0.834 11.756 1.11088 21.6435 
492 1 1 -0.834 16.364 19.8666 53.4137 
493 1 1 -0.834 3.92477 13.1888 0.653555 
494 1 1 -0.834 4.28305 23.1514 58.2484 
495 1 1 -0.834 3.14786 24.2376 54.4121 
496 1 1 -0.834 8.2384 6.64085 47.3673 
497 1 1 -0.834 15.6888 18.4299 49.9675 
498 1 1 -0.834 1.67277 11.3541 77.2528 
499 1 1 -0.834 19.4651 5.26211 71.0587 
500 1 1 -0.834 10.8179 23.8537 55.4034 
501 1 1 -0.834 14.6014 5.41876 51.0876 
502 1 1 -0.834 15.4603 9.98761 68.5814 
503 1 1 -0.834 9.38147 15.4829 42.7573 
504 1 1 -0.834 13.0184 22.6376 70.5992 
505 1 1 -0.834 6.29448 2.11412 9.91989 
506 1 1 -0.834 14.8458 17.1238 9.38264 
507 1 1 -0.834 23.8941 6.95452 61.1127 
508 1 1 -0.834 9.93318 7.65014 45.4302 
509 1 1 -0.834 12.925 7.17651 52.3447 
510 1 1 -0.834 3.572 0.405967 10.208 
511 1 1 -0.834 2.44708 15.2511 1.41908 
512 1 1 -0.834 22.8028 0.525476 28.4013 
513 1 1 -0.834 17.0341 16.2345 33.3793 
514 1 1 -0.834 20.0098 10.1235 37.5313 
515 1 1 -0.834 13.2358 19.1591 64.3645 
516 1 1 -0.834 7.38626 1.72889 68.0458 
517 1 1 -0.834 8.59952 10.8389 41.8543 
518 1 1 -0.834 8.96642 10.1685 54.26 
519 1 1 -0.834 13.6823 13.7085 75.684 
520 1 1 -0.834 14.7912 19.9894 8.47669 
521 1 1 -0.834 6.50773 5.39697 70.9466 
522 1 1 -0.834 4.22835 7.7809 63.1869 
523 1 1 -0.834 24.1773 4.55792 7.07195 
524 1 1 -0.834 0.362412 6.0505 71.446 
525 1 1 -0.834 15.7467 2.99572 16.1615 
526 1 1 -0.834 11.4241 12.4104 27.3043 
527 1 1 -0.834 1.44981 0.975689 76.2262 
528 1 1 -0.834 22.0801 22.192 68.0137 
529 1 1 -0.834 8.55997 20.6587 75.0763 
530 1 1 -0.834 24.2933 23.3745 66.0195 
531 1 1 -0.834 23.6463 17.4772 82.6501 
532 1 1 -0.834 9.28412 8.45009 51.922 
533 1 1 -0.834 18.7469 22.8603 64.8419 
534 1 1 -0.834 9.9189 1.37364 66.6949 
535 1 1 -0.834 9.63658 12.2718 0.676852 
536 1 1 -0.834 19.6661 11.2948 56.714 
537 1 1 -0.834 1.04817 23.5148 6.23286 
538 1 1 -0.834 6.99945 0.683622 39.6695 
539 1 1 -0.834 13.7811 13.7952 65.2998 
540 1 1 -0.834 18.0578 17.4429 7.64931 
541 1 1 -0.834 6.14521 5.77231 45.4429 
542 1 1 -0.834 8.58528 7.16382 65.9721 
543 1 1 -0.834 3.78739 2.09917 72.5557 
544 1 1 -0.834 18.4093 23.7613 2.91971 
545 1 1 -0.834 6.18828 18.0961 46.8896 
546 1 1 -0.834 18.5844 17.7386 3.38835 
547 1 1 -0.834 19.2215 23.8787 28.3411 
548 1 1 -0.834 0.791916 1.76943 33.0309 
549 1 1 -0.834 23.7924 17.434 53.0015 
550 1 1 -0.834 19.6058 8.3567 78.7906 
551 1 1 -0.834 11.3101 13.4894 32.3757 
552 1 1 -0.834 5.56884 1.53468 70.3684 
553 1 1 -0.834 13.4783 22.357 79.8807 
554 1 1 -0.834 11.0101 3.24274 81.7343 
555 1 1 -0.834 8.12033 14.8674 62.4481 
556 1 1 -0.834 15.7792 23.6707 24.2816 
557 1 1 -0.834 13.0843 14.7234 44.7583 
558 1 1 -0.834 12.1005 14.3185 5.35769 
559 1 1 -0.834 17.3779 23.2312 55.4739 
560 1 1 -0.834 15.2314 15.4046 79.9304 
561 1 1 -0.834 4.79619 17.2879 67.4743 
562 1 1 -0.834 16.4483 8.57387 51.7513 
563 1 1 -0.834 16.3024 0.302468 72.1758 
564 1 1 -0.834 22.5722 15.3704 20.5033 
565 1 1 -0.834 13.527 15.9306 77.2561 
566 1 1 -0.834 24.1878 7.17522 39.5089 
567 1 1 -0.834 10.8053 19.7128 48.2978 
568 1 1 -0.834 14.2871 1.74011 58.3302 
569 1 1 -0.834 14.3457 20.3761 71.3362 
570 1 1 -0.834 23.1985 0.587662 75.9927 
571 1 1 -0.834 13.3111 7.79401 43.6485 
572 1 1 -0.834 17.9045 2.25681 43.0653 
573 1 1 -0.834 20.0794 20.5207 47.3811 
574 1 1 -0.834 4.73951 3.61229 55.0389 
575 1 1 -0.834 0.531976 20.1307 85.4197 
576 1 1 -0.834 19.9632 12.9718 43.8639 
577 1 1 -0.834 5.72193 9.32157 53.6107 
578 1 1 -0.834 14.7574 3.23433 67.9929 
579 1 1 -0.834 16.3824 8.05475 62.7102 
580 1 1 -0.834 9.76596 8.52207 7.84397 
581 1 1 -0.834 21.7192 13.6718 39.065 
582 1 1 -0.834 17.6156 7.73947 60.2089 
583 1 1 -0.834 13.1863 21.8489 14.6414 
584 1 1 -0.834 22.4666 9.59702 59.8996 
585 1 1 -0.834 1.44622 9.07099 52.012 
586 1 1 -0.834 18.6803 15.5506 54.1845 
587 1 1 -0.834 0.320043 18.6503 56.7207 
588 1 1 -0.834 14.1234 4.46539 47.9926 
589 1 1 -0.834 19.8947 0.0757474 68.6698 
590 1 1 -0.834 22.5206 17.4533 74.2093 
591 1 1 -0.834 21.6267 22.5427 42.5432 
592 1 1 -0.834 4.81395 12.9678 64.7607 
593 1 1 -0.834 6.37792 8.27322 67.1901 
594 1 1 -0.834 4.78528 19.4062 54.0944 
595 1 1 -0.834 13.3831 22.3262 39.2856 
596 1 1 -0.834 20.4699 18.2618 78.4875 
597 1 1 -0.834 20.6396 19.2497 68.7514 
598 1 1 -0.834 18.407 3.75919 73.3425 
599 1 1 -0.834 10.7191 24.0103 19.6289 
600 1 1 -0.834 10.6133 9.06037 78.4379 
601 1 1 -0.834 23.807 10.1185 43.1772 
602 1 1 -0.834 19.9612 1.90087 55.183 
603 1 1 -0.834 13.0855 6.83903 48.4645 
604 1 1 -0.834 17.8206 11.6796 68.6466 
605 1 1 -0.834 13.5287 10.6118 43.5093 
606 1 1 -0.834 15.5832 7.02977 81.5506 
607 1 1 -0.834 15.5985 8.03668 54.5312 
608 1 1 -0.834 21.4506 18.7173 62.3485 
609 1 1 -0.834 7.88507 11.0679 65.9941 
610 1 1 -0.834 15.671 10.5534 46.602 
611 1 1 -0.834 1.60724 10.0722 45.2751 
612 1 1 -0.834 19.2533 19.0689 64.6492 
613 1 1 -0.834 3.11663 17.9475 58.072 
614 1 1 -0.834 17.2223 22.4455 52.5139 
615 1 1 -0.834 16.5541 23.1168 74.772 
616 1 1 -0.834 7.25099 2.44777 63.5315 
617 1 1 -0.834 22.9123 16.1338 43.9805 
618 1 1 -0.834 9.52715 0.86629 59.7842 
619 1 1 -0.834 22.8023 12.7339 80.6204 
620 1 1 -0.834 0.908267 7.68566 36.9632 
621 1 1 -0.834 16.9104 19.9268 43.4875 
622 1 1 -0.834 17.1816 10.1861 38.0623 
623 1 1 -0.834 8.16946 2.50453 33.0695 
624 1 1 -0.834 1.97112 20.6074 53.7068 
625 1 1 -0.834 19.2096 21.5207 58.2435 
626 1 1 -0.834 7.15845 4.42762 65.3836 
627 1 1 -0.834 13.6132 19.6314 59.3266 
628 1 1 -0.834 1.4714 15.6913 18.6859 
629 1 1 -0.834 11.7782 14.5255 35.7803 
630 1 1 -0.834 9.09109 18.9028 36.9064 
631 1 1 -0.834 4.40511 12.0768 21.2757 
632 1 1 -0.834 2.07464 18.4649 23.9225 
633 1 1 -0.834 7.86316 15.257 68.2364 
634 1 1 -0.834 13.1258 4.30175 0.138466 
635 1 1 -0.834 6.8181 16.9834 18.3532 
636 1 1 -0.834 12.1973 16.2503 80.0133 
637 1 1 -0.834 17.215 15.6217 51.9306 
638 1 1 -0.834 3.27403 14.2919 68.1837 
639 1 1 -0.834 4.20275 11.6809 76.9983 
640 1 1 -0.834 11.5404 15.598 67.8963 
641 1 1 -0.834 18.9119 5.28813 17.5022 
642 1 1 -0.834 6.17908 5.48288 62.1605 
643 1 1 -0.834 24.3497 11.947 82.7895 
644 1 1 -0.834 18.3297 20.4241 55.395 
645 1 1 -0.834 4.24863 18.4936 22.3065 
646 1 1 -0.834 5.22483 4.4004 29.3764 
647 1 1 -0.834 15.913 3.14801 41.2847 
648 1 1 -0.834 11.8299 16.2441 7.61754 
649 1 1 -0.834 3.59838 2.66658 3.94984 
650 1 1 -0.834 24.2499 10.3269 66.1932 
651 1 1 -0.834 22.4542 21.1125 58.1988 
652 1 1 -0.834 18.6328 18.9556 0.920445 
653 1 1 -0.834 14.905 12.6986 45.0981 
654 1 1 -0.834 3.43746 12.6752 46.236 
655 1 1 -0.834 21.6203 8.61159 19.4407 
656 1 1 -0.834 2.05623 17.3287 52.1694 
657 1 1 -0.834 9.23066 4.04625 47.1662 
658 1 1 -0.834 10.3984 2.97509 53.815 
659 1 1 -0.834 22.0953 6.91584 50.0642 
660 1 1 -0.834 5.36711 2.49305 36.3759 
661 1 1 -0.834 0.43282 0.553561 10.3281 
662 1 1 -0.834 22.5833 3.97545 59.8074 
663 1 1 -0.834 20.6353 23.8432 55.5796 
664 1 1 -0.834 16.4573 16.178 66.8029 
665 1 1 -0.834 17.9857 14.7699 80.2978 
666 1 1 -0.834 12.8543 19.0123 50.0296 
667 1 1 -0.834 14.8427 15.7398 84.2378 
668 1 1 -0.834 7.18568 20.4078 42.013 
669 1 1 -0.834 0.478801 5.78713 44.2026 
670 1 1 -0.834 2.9081 7.56818 34.4321 
671 1 1 -0.834 22.8866 6.35555 58.2956 
672 1 1 -0.834 8.40619 24.1948 43.3396 
673 1 1 -0.834 3.3636 21.4192 47.9331 
674 1 1 -0.834 7.66325 9.94031 6.57341 
675 1 1 -0.834 5.40613 12.7478 74.1453 
676 1 1 -0.834 6.90615 23.186 17.7834 
677 1 1 -0.834 21.2045 3.39272 53.4218 
678 1 1 -0.834 22.1345 10.3429 51.2455 
679 1 1 -0.834 3.09713 14.813 20.9285 
680 1 1 -0.834 11.6693 5.79944 78.3943 
681 1 1 -0.834 2.06717 2.92821 47.4994 
682 1 1 -0.834 5.22375 15.8384 65.036 
683 1 1 -0.834 2.08804 4.27984 33.7661 
684 1 1 -0.834 8.03465 7.86511 3.64829 
685 1 1 -0.834 9.39366 24.0851 64.0595 
686 1 1 -0.834 18.7788 1.98937 62.2898 
687 1 1 -0.834 1.32968 15.1683 81.1234 
688 1 1 -0.834 9.29688 12.4811 48.3307 
689 1 1 -0.834 16.0801 13.3761 82.0195 
690 1 1 -0.834 15.2547 8.48142 48.715 
691 1 1 -0.834 14.9307 9.88091 65.0543 
692 1 1 -0.834 14.4561 5.70373 76.4611 
693 1 1 -0.834 7.9312 13.5644 74.0815 
694 1 1 -0.834 9.92232 4.99084 27.0599 
695 1 1 -0.834 5.24641 10.2522 86.3682 
696 1 1 -0.834 23.2691 3.66406 77.2605 
697 1 1 -0.834 21.8441 18.5793 59.717 
698 1 1 -0.834 15.6843 12.259 36.5718 
699 1 1 -0.834 22.9203 6.55924 64.0181 
700 1 1 -0.834 20.6845 7.83883 58.6494 
701 1 1 -0.834 12.2217 20.4704 74.2857 
702 1 1 -0.834 1.95701 20.5229 78.3361 
703 1 1 -0.834 8.17359 18.1817 67.366 
704 1 1 -0.834 7.26696 11.6065 84.9308 
705 1 1 -0.834 11.0046 13.7059 56.8047 
706 1 1 -0.834 14.8814 16.6673 12.3533 
707 1 1 -0.834 9.16282 17.2524 14.3282 
708 1 1 -0.834 0.821404 13.3067 85.228 
709 1 1 -0.834 23.7024 11.6035 13.8207 
710 1 1 -0.834 19.8884 10.325 53.1608 
711 1 1 -0.834 7.31853 8.24763 0.115649 
712 1 1 -0.834 8.45012 0.608606 49.1897 
713 1 1 -0.834 13.3287 4.35611 58.3057 
714 1 1 -0.834 10.2607 23.3634 61.4649 
715 1 1 -0.834 1.40676 1.07874 64.0591 
716 1 1 -0.834 12.5982 6.28189 84.462 
717 1 1 -0.834 15.5542 24.185 68.9397 
718 1 1 -0.834 1.83623 5.21905 57.3695 
719 1 1 -0.834 16.7857 23.4495 46.5031 
720 1 1 -0.834 6.52413 0.505271 51.1692 
721 1 1 -0.834 0.720706 1.91114 5.8225 
722 1 1 -0.834 3.85866 23.9428 49.166 
723 1 1 -0.834 3.1216 3.32537 80.2624 
724 1 1 -0.834 21.9129 16.8804 64.4887 
725 1 1 -0.834 10.9042 20.6841 57.5411 
726 1 1 -0.834 0.829888 0.0958535 69.005 
727 1 1 -0.834 10.9656 14.497 77.3373 
728 1 1 -0.834 23.4778 14.7001 68.3987 
729 1 1 -0.834 15.8977 19.3265 34.2678 
730 1 1 -0.834 10.4888 21.5152 46.1635 
731 1 1 -0.834 4.19895 17.8621 72.7068 
732 1 1 -0.834 18.2992 14.5819 73.7093 
733 1 1 -0.834 7.04795 20.2532 81.6404 
734 1 1 -0.834 15.4819 0.500243 86.7712 
735 1 1 -0.834 2.67759 3.81102 28.5366 
736 1 1 -0.834 10.3986 20.5408 81.9509 
737 1 1 -0.834 11.9514 20.5427 17.72 
738 1 1 -0.834 4.64513 3.75296 75.0453 
739 1 1 -0.834 15.0927 3.4131 73.2405 
740 1 1 -0.834 10.7585 22.432 78.3602 
741 1 1 -0.834 10.4594 2.41577 84.2189 
742 1 1 -0.834 13.2312 3.0288 62.078 
743 1 1 -0.834 22.2048 0.0891619 73.1313 
744 1 1 -0.834 6.00058 10.432 72.2477 
745 1 1 -0.834 18.3274 18.4038 45.5241 
746 1 1 -0.834 21.1073 9.57824 35.0044 
747 1 1 -0.834 22.993 15.5218 54.6929 
748 1 1 -0.834 11.5521 23.729 58.0964 
749 1 1 -0.834 3.72536 4.05306 51.5169 