ITEM: TIMESTEP
3000000
ITEM: NUMBER OF ATOMS
5487
ITEM: BOX BOUNDS pp pp pp
2.4900000000000000e-01 2.4248999999999999e+01
2.5950000000000001e-01 2.4259499999999999e+01
0.0000000000000000e+00 1.0536952658408562e+02
ITEM: ATOMS id mol type q x y z
1 1 2 0.417 3.69671 5.25637 81.3101
2 1 2 0.417 4.94091 5.31979 80.5014
3 1 5 -0.834 3.97139 5.53617 80.4224
4 2 2 0.417 10.383 6.71083 73.2615
5 2 2 0.417 9.16546 7.05847 72.4553
6 2 5 -0.834 10.0832 6.77334 72.3749
7 3 2 0.417 14.3743 4.13714 75.9713
8 3 2 0.417 14.0103 5.55501 75.5581
9 3 5 -0.834 14.487 4.75895 75.195
10 4 2 0.417 17.0135 8.62166 58.1951
11 4 2 0.417 16.1168 9.7849 57.8716
12 4 5 -0.834 16.4783 9.03674 57.4606
13 5 2 0.417 19.5155 13.0197 69.3817
14 5 2 0.417 20.2834 14.0219 68.5666
15 5 5 -0.834 20.3547 13.4864 69.3628
16 6 2 0.417 5.46245 10.8452 44.9846
17 6 2 0.417 6.34797 12.0742 44.7917
18 6 5 -0.834 5.40124 11.7697 44.6476
19 7 2 0.417 10.1916 13.4945 49.9168
20 7 2 0.417 10.4453 12.1416 49.2302
21 7 5 -0.834 10.1009 13.0247 49.0053
22 8 2 0.417 15.2151 19.8971 36.1873
23 8 2 0.417 14.804 21.1139 36.9063
24 8 5 -0.834 15.4733 20.8251 36.2009
25 9 2 0.417 0.987098 12.2393 95.9893
26 9 2 0.417 1.44243 13.6866 96.3559
27 9 5 -0.834 0.883246 13.2009 95.739
28 10 2 0.417 14.7666 8.83408 54.7259
29 10 2 0.417 15.8209 8.73384 53.7618
30 10 5 -0.834 14.9836 8.33995 53.956
31 11 2 0.417 9.00277 4.24566 39.9653
32 11 2 0.417 8.02947 3.06677 40.047
33 11 5 -0.834 8.65313 3.56207 39.3744
34 12 2 0.417 20.2672 18.3442 84.0292
35 12 2 0.417 19.8078 16.8983 83.6188
36 12 5 -0.834 19.8118 17.8318 83.2922
37 13 2 0.417 19.2322 9.45841 47.7406
38 13 2 0.417 19.233 10.3016 49.1536
39 13 5 -0.834 18.7278 9.68308 48.5254
40 14 2 0.417 18.8955 16.2364 75.1716
41 14 2 0.417 17.7564 15.2758 74.8963
42 14 5 -0.834 18.0207 16.1866 74.6986
43 15 2 0.417 0.279761 0.290393 0.818845
44 15 2 0.417 0.903576 1.30398 105.364
45 15 5 -0.834 1.0323 0.913309 0.891529
46 16 2 0.417 0.38044 11.3931 86.8746
47 16 2 0.417 1.44562 11.4152 87.7215
48 16 5 -0.834 1.32558 11.3082 86.7715
49 17 2 0.417 24.0141 15.9568 65.8195
50 17 2 0.417 22.6848 15.7901 66.3536
51 17 5 -0.834 23.3332 15.2891 65.8389
52 18 2 0.417 21.3165 8.82112 92.7532
53 18 2 0.417 19.8543 8.83131 92.934
54 18 5 -0.834 20.6527 8.25898 93.1531
55 19 2 0.417 17.7925 6.13515 58.6939
56 19 2 0.417 18.6418 5.16949 59.386
57 19 5 -0.834 18.1655 5.26304 58.5033
58 20 2 0.417 0.720226 12.3825 94.2188
59 20 2 0.417 24.0832 12.536 92.7878
60 20 5 -0.834 0.746781 12.0429 93.233
61 21 2 0.417 15.7325 2.34225 100.311
62 21 2 0.417 14.8141 3.36009 99.9839
63 21 5 -0.834 14.8088 2.57377 100.59
64 22 2 0.417 11.4026 21.6637 92.4455
65 22 2 0.417 12.8575 21.5061 92.7344
66 22 5 -0.834 12.1837 21.1799 92.0828
67 23 2 0.417 18.7164 5.10382 39.561
68 23 2 0.417 19.3885 5.78668 40.6464
69 23 5 -0.834 19.4655 5.74188 39.6812
70 24 2 0.417 15.1761 18.4942 49.6661
71 24 2 0.417 15.7598 19.4551 48.7971
72 24 5 -0.834 15.7607 18.4894 48.8922
73 25 2 0.417 1.19673 23.4328 49.1139
74 25 2 0.417 0.298905 22.091 49.2159
75 25 5 -0.834 0.909805 22.5724 48.6602
76 26 2 0.417 10.8781 24.1464 44.6471
77 26 2 0.417 10.2419 23.9659 43.2983
78 26 5 -0.834 10.9852 23.5894 43.7805
79 27 2 0.417 17.183 19.2856 74.6658
80 27 2 0.417 17.5418 20.7065 74.1659
81 27 5 -0.834 16.779 20.0672 74.1467
82 28 2 0.417 12.7946 4.89553 42.4116
83 28 2 0.417 12.552 5.74817 41.0406
84 28 5 -0.834 13.226 5.27551 41.5895
85 29 2 0.417 9.79217 22.0977 77.2744
86 29 2 0.417 11.0141 22.8758 77.7815
87 29 5 -0.834 10.3902 22.8195 77.0105
88 30 2 0.417 12.9398 22.8184 48.1614
89 30 2 0.417 12.5075 24.0069 48.9067
90 30 5 -0.834 12.1088 23.2777 48.3717
91 31 2 0.417 18.0979 19.4932 1.94659
92 31 2 0.417 18.2319 18.0197 1.80046
93 31 5 -0.834 17.6065 18.6815 2.10534
94 32 2 0.417 7.49437 15.186 92.625
95 32 2 0.417 7.5092 13.7257 92.5098
96 32 5 -0.834 6.88323 14.4555 92.4832
97 33 2 0.417 11.0748 5.6244 37.3539
98 33 2 0.417 12.4313 6.07554 38.0422
99 33 5 -0.834 11.5437 6.3471 37.9279
100 34 2 0.417 22.4736 20.6386 34.6879
101 34 2 0.417 22.6701 21.0893 36.1608
102 34 5 -0.834 23.1999 20.7491 35.3856
103 35 2 0.417 3.16522 18.5762 95.933
104 35 2 0.417 3.54482 18.6406 94.473
105 35 5 -0.834 3.91326 18.4761 95.3486
106 36 2 0.417 20.9097 4.59161 64.7861
107 36 2 0.417 21.3376 5.71959 65.679
108 36 5 -0.834 21.4452 5.38059 64.7818
109 37 2 0.417 17.1689 7.65905 35.6877
110 37 2 0.417 17.5594 6.34477 35.0731
111 37 5 -0.834 17.082 6.72598 35.8642
112 38 2 0.417 2.87576 3.43336 52.8071
113 38 2 0.417 1.53175 3.35767 52.0741
114 38 5 -0.834 2.49243 3.0974 51.9991
115 39 2 0.417 15.0119 11.2786 48.9535
116 39 2 0.417 15.7066 12.6212 49.188
117 39 5 -0.834 15.6372 11.8505 48.5606
118 40 2 0.417 22.5383 13.0948 14.2763
119 40 2 0.417 23.7946 13.618 13.7706
120 40 5 -0.834 23.2253 13.7509 14.5107
121 41 2 0.417 21.9906 13.0334 47.5625
122 41 2 0.417 21.859 13.9104 46.4698
123 41 5 -0.834 21.3046 13.2697 46.91
124 42 2 0.417 22.3112 6.58543 66.9676
125 42 2 0.417 21.5445 6.69931 68.2413
126 42 5 -0.834 21.5803 6.1226 67.4833
127 43 2 0.417 18.4611 4.63402 42.9057
128 43 2 0.417 19.1094 5.81209 43.4773
129 43 5 -0.834 19.0573 5.33643 42.6672
130 44 2 0.417 17.8259 20.127 25.4204
131 44 2 0.417 18.7105 18.9394 25.4412
132 44 5 -0.834 17.8254 19.1609 25.6918
133 45 2 0.417 4.60453 21.9034 4.03608
134 45 2 0.417 3.94694 22.8839 3.2795
135 45 5 -0.834 4.56194 22.851 4.0163
136 46 2 0.417 23.6473 6.14298 73.8381
137 46 2 0.417 22.988 7.53378 73.882
138 46 5 -0.834 23.012 6.71683 73.355
139 47 2 0.417 11.9126 16.138 84.6727
140 47 2 0.417 13.1247 15.4681 84.0509
141 47 5 -0.834 12.149 15.5051 83.9657
142 48 2 0.417 21.2167 6.8129 72.7789
143 48 2 0.417 20.8324 7.30173 71.4194
144 48 5 -0.834 20.4336 6.85302 72.1288
145 49 2 0.417 3.98625 13.5648 97.1321
146 49 2 0.417 3.46895 14.8959 96.6334
147 49 5 -0.834 3.13585 14.0112 96.9581
148 50 2 0.417 16.2297 10.586 41.8107
149 50 2 0.417 15.3857 9.81333 42.8249
150 50 5 -0.834 15.5703 9.86481 41.8763
151 51 2 0.417 11.8146 16.2188 82.4593
152 51 2 0.417 10.6032 16.2734 81.5042
153 51 5 -0.834 11.3894 16.8184 81.7901
154 52 2 0.417 20.3113 6.47524 93.1988
155 52 2 0.417 18.8931 5.79263 93.5251
156 52 5 -0.834 19.8135 5.58898 93.241
157 53 2 0.417 16.1867 23.6953 15.0191
158 53 2 0.417 16.1429 22.7684 16.283
159 53 5 -0.834 15.606 23.1441 15.5747
160 54 2 0.417 18.3929 19.8725 46.7259
161 54 2 0.417 17.1701 19.7669 46.095
162 54 5 -0.834 18.1045 19.7743 45.8345
163 55 2 0.417 21.3931 4.26058 35.993
164 55 2 0.417 22.5876 3.50403 36.0879
165 55 5 -0.834 21.723 3.44457 35.6533
166 56 2 0.417 17.1896 24.1883 86.4956
167 56 2 0.417 15.8282 0.418461 86.5217
168 56 5 -0.834 16.5678 0.64497 85.9172
169 57 2 0.417 16.7342 16.885 25.9508
170 57 2 0.417 17.0355 15.948 24.6944
171 57 5 -0.834 16.3266 16.3183 25.2894
172 58 2 0.417 10.1231 20.2288 45.9166
173 58 2 0.417 10.1369 20.2696 44.409
174 58 5 -0.834 9.65899 19.7907 45.1683
175 59 2 0.417 4.98561 8.38186 37.6624
176 59 2 0.417 4.58326 7.08956 37.2188
177 59 5 -0.834 4.91432 7.8977 36.8176
178 60 2 0.417 10.0846 11.1021 89.9686
179 60 2 0.417 10.6873 11.3796 91.3034
180 60 5 -0.834 10.7292 11.6545 90.4021
181 61 2 0.417 12.0687 19.6554 69.0358
182 61 2 0.417 11.8289 21.0091 69.475
183 61 5 -0.834 11.4947 20.4131 68.7512
184 62 2 0.417 6.208 3.4068 89.5313
185 62 2 0.417 5.60613 2.0955 89.3591
186 62 5 -0.834 5.38485 2.94271 89.735
187 63 2 0.417 7.51223 22.6393 37.8732
188 63 2 0.417 7.88427 23.0609 36.5132
189 63 5 -0.834 7.71334 23.4829 37.3679
190 64 2 0.417 20.0673 19.5134 41.7593
191 64 2 0.417 20.4506 18.2792 41.1311
192 64 5 -0.834 19.961 19.0775 40.9189
193 65 2 0.417 8.04897 18.9892 36.5395
194 65 2 0.417 7.34155 18.9533 35.1305
195 65 5 -0.834 8.21228 19.0693 35.6132
196 66 2 0.417 22.9382 15.6262 80.1646
197 66 2 0.417 22.8541 14.1582 80.1371
198 66 5 -0.834 23.4789 14.8523 79.9253
199 67 2 0.417 5.85767 3.02558 51.4204
200 67 2 0.417 7.24672 3.68014 51.1509
201 67 5 -0.834 6.80027 3.129 51.7612
202 68 2 0.417 10.8382 16.9109 53.689
203 68 2 0.417 10.4411 16.6626 55.1655
204 68 5 -0.834 11.0171 16.2713 54.4284
205 69 2 0.417 15.263 17.3562 23.3299
206 69 2 0.417 14.0955 17.4751 24.2533
207 69 5 -0.834 14.2898 17.1898 23.3491
208 70 2 0.417 16.4242 8.15936 66.707
209 70 2 0.417 15.2576 9.17001 66.6948
210 70 5 -0.834 15.9137 8.80587 66.0996
211 71 2 0.417 22.4792 1.06304 74.8281
212 71 2 0.417 22.6529 23.6853 75.1639
213 71 5 -0.834 22.4841 0.484087 75.6168
214 72 2 0.417 18.2377 20.668 89.7081
215 72 2 0.417 17.1514 20.7275 90.8218
216 72 5 -0.834 17.5321 20.1257 90.1807
217 73 2 0.417 11.6693 2.30747 84.7251
218 73 2 0.417 11.1719 1.26832 83.666
219 73 5 -0.834 10.8695 1.8619 84.3716
220 74 2 0.417 16.4527 8.18862 45.6565
221 74 2 0.417 15.984 7.5833 46.9146
222 74 5 -0.834 16.1907 7.35144 46.0147
223 75 2 0.417 10.0824 5.66664 99.0825
224 75 2 0.417 10.4996 6.37647 97.8361
225 75 5 -0.834 10.5595 5.49074 98.2602
226 76 2 0.417 19.876 10.7249 54.5173
227 76 2 0.417 19.9903 9.21462 54.8102
228 76 5 -0.834 20.2011 9.9092 54.1393
229 77 2 0.417 10.8225 7.04826 84.6558
230 77 2 0.417 11.349 8.28838 85.3848
231 77 5 -0.834 11.5236 7.6698 84.6648
232 78 2 0.417 9.58097 3.38758 43.0558
233 78 2 0.417 11.0092 3.91423 42.9965
234 78 5 -0.834 10.0795 4.19178 42.8428
235 79 2 0.417 17.8754 9.1546 44.3452
236 79 2 0.417 19.1929 9.7255 43.9651
237 79 5 -0.834 18.8211 9.15802 44.6252
238 80 2 0.417 17.1271 4.06679 68.2312
239 80 2 0.417 18.1917 4.71226 69.0321
240 80 5 -0.834 17.5778 4.91338 68.2976
241 81 2 0.417 15.2494 20.0782 41.9381
242 81 2 0.417 14.2632 20.9563 42.6254
243 81 5 -0.834 14.3243 20.0588 42.264
244 82 2 0.417 4.58109 18.2606 11.3542
245 82 2 0.417 4.60536 19.703 11.8994
246 82 5 -0.834 4.21626 18.8921 12.0644
247 83 2 0.417 16.498 5.28896 66.0108
248 83 2 0.417 15.3307 5.62266 66.9408
249 83 5 -0.834 15.5549 5.54847 65.99
250 84 2 0.417 7.38586 7.11005 66.4903
251 84 2 0.417 8.15102 5.84721 65.8243
252 84 5 -0.834 7.57487 6.64538 65.6071
253 85 2 0.417 13.1067 3.15355 85.8533
254 85 2 0.417 14.2386 3.3357 84.8751
255 85 5 -0.834 13.2361 3.13061 84.9259
256 86 2 0.417 8.35539 1.7685 62.6649
257 86 2 0.417 8.28832 0.267952 63.2548
258 86 5 -0.834 8.89362 0.958338 62.9186
259 87 2 0.417 5.87863 11.0351 83.4193
260 87 2 0.417 4.80803 10.018 83.4717
261 87 5 -0.834 5.75726 10.0575 83.1985
262 88 2 0.417 23.2146 8.69412 91.1859
263 88 2 0.417 24.1251 9.16403 92.2004
264 88 5 -0.834 23.1681 8.96314 92.1415
265 89 2 0.417 11.5842 14.6187 54.5379
266 89 2 0.417 12.1974 13.8114 55.5573
267 89 5 -0.834 12.1238 13.8528 54.6173
268 90 2 0.417 1.16425 0.576933 82.0426
269 90 2 0.417 2.10256 23.336 81.8118
270 90 5 -0.834 1.76775 24.1602 81.3976
271 91 2 0.417 16.3714 14.7313 50.9453
272 91 2 0.417 17.3144 13.4832 50.9021
273 91 5 -0.834 16.6162 14.0089 50.3961
274 92 2 0.417 2.05703 19.3352 60.0149
275 92 2 0.417 1.20017 20.3935 59.2957
276 92 5 -0.834 2.0751 20.0047 59.2716
277 93 2 0.417 16.0069 12.4366 59.1354
278 93 2 0.417 17.1418 11.6061 59.4274
279 93 5 -0.834 16.6192 11.8647 58.655
280 94 2 0.417 14.7819 13.7235 70.1018
281 94 2 0.417 14.3556 14.4667 68.8916
282 94 5 -0.834 14.3657 13.5312 69.2449
283 95 2 0.417 15.1822 16.4449 46.8596
284 95 2 0.417 15.0336 17.7868 47.4856
285 95 5 -0.834 14.4663 17.0637 47.0818
286 96 2 0.417 11.8374 1.76219 63.3353
287 96 2 0.417 10.7083 0.998046 63.9732
288 96 5 -0.834 11.6586 1.15999 64.1001
289 97 2 0.417 19.4351 7.20786 75.3081
290 97 2 0.417 20.7817 6.65011 75.5573
291 97 5 -0.834 20.3588 7.38185 75.0914
292 98 2 0.417 19.3943 14.3591 71.7234
293 98 2 0.417 20.4268 14.6349 70.6559
294 98 5 -0.834 20.2544 14.77 71.6404
295 99 2 0.417 15.3085 23.5278 78.3598
296 99 2 0.417 16.0612 0.721462 78.881
297 99 5 -0.834 15.4539 0.516454 78.1809
298 100 2 0.417 16.5207 5.80064 75.3282
299 100 2 0.417 17.7537 5.28953 76.0487
300 100 5 -0.834 17.5235 5.90332 75.4373
301 101 2 0.417 20.0481 21.1605 99.301
302 101 2 0.417 18.8328 21.8394 99.7939
303 101 5 -0.834 19.5485 21.3033 100.13
304 102 2 0.417 11.1325 14.4402 52.0112
305 102 2 0.417 10.1746 13.3518 52.5125
306 102 5 -0.834 10.4077 13.9041 51.6922
307 103 2 0.417 15.6787 15.9251 90.6206
308 103 2 0.417 14.5424 15.3415 89.783
309 103 5 -0.834 14.7696 15.5599 90.7148
310 104 2 0.417 1.40645 21.9139 91.0052
311 104 2 0.417 1.19611 21.575 89.5353
312 104 5 -0.834 1.07268 22.327 90.1287
313 105 2 0.417 18.9142 16.9661 77.41
314 105 2 0.417 17.5591 16.955 78.0716
315 105 5 -0.834 18.3253 17.5493 77.8977
316 106 2 0.417 13.6427 7.52592 41.8804
317 106 2 0.417 14.2843 8.76323 41.2458
318 106 5 -0.834 13.526 8.18496 41.1809
319 107 2 0.417 21.6397 1.30069 90.9094
320 107 2 0.417 21.3837 24.0186 90.2166
321 107 5 -0.834 21.4504 1.00483 90.0017
322 108 2 0.417 23.3533 1.23269 64.0507
323 108 2 0.417 22.8273 24.1428 64.7723
324 108 5 -0.834 22.6274 0.547046 63.9446
325 109 2 0.417 17.1541 24.2167 93.6148
326 109 2 0.417 17.5535 23.3339 92.4493
327 109 5 -0.834 17.1953 24.2316 92.6124
328 110 2 0.417 2.43802 23.9725 1.55564
329 110 2 0.417 2.73068 22.6509 0.97072
330 110 5 -0.834 2.93737 23.198 1.72834
331 111 2 0.417 8.28884 12.9023 66.4177
332 111 2 0.417 7.80282 11.4463 66.4015
333 111 5 -0.834 7.4941 12.3891 66.3266
334 112 2 0.417 24.1272 10.7857 51.4621
335 112 2 0.417 1.24569 9.78844 51.5215
336 112 5 -0.834 0.9791 10.6069 51.0385
337 113 2 0.417 0.906101 10.1907 46.8901
338 113 2 0.417 24.0543 10.2135 45.6136
339 113 5 -0.834 0.660078 9.5917 46.1172
340 114 2 0.417 2.43952 11.6869 70.2646
341 114 2 0.417 1.01796 11.6034 70.4067
342 114 5 -0.834 1.73227 11.1994 69.8957
343 115 2 0.417 12.9177 15.869 87.1158
344 115 2 0.417 12.4591 15.3138 88.4266
345 115 5 -0.834 13.2239 15.6769 87.9721
346 116 2 0.417 6.45188 5.81674 39.563
347 116 2 0.417 6.17476 7.33244 39.3137
348 116 5 -0.834 6.80302 6.58873 39.0473
349 117 2 0.417 8.92668 20.0308 12.5365
350 117 2 0.417 7.91138 19.2111 13.3174
351 117 5 -0.834 8.02811 19.6142 12.4637
352 118 2 0.417 3.81994 13.4396 15.4219
353 118 2 0.417 4.25946 12.2482 16.2705
354 118 5 -0.834 3.75127 13.0589 16.3821
355 119 2 0.417 24.1496 4.75532 53.6075
356 119 2 0.417 23.3214 4.22914 52.6729
357 119 5 -0.834 24.2462 4.3598 52.7276
358 120 2 0.417 2.17116 1.2726 65.3969
359 120 2 0.417 1.24213 0.46128 66.1265
360 120 5 -0.834 2.21509 0.529587 66.052
361 121 2 0.417 15.0368 20.6169 61.6893
362 121 2 0.417 16.4452 20.9689 61.4381
363 121 5 -0.834 15.5851 21.4145 61.6411
364 122 2 0.417 20.377 16.0271 85.9378
365 122 2 0.417 21.0871 15.0043 85.1601
366 122 5 -0.834 20.2522 15.5212 85.0881
367 123 2 0.417 16.0766 14.0347 74.7394
368 123 2 0.417 15.7753 14.8922 73.5276
369 123 5 -0.834 16.1837 14.0558 73.745
370 124 2 0.417 21.1636 12.9304 62.5997
371 124 2 0.417 20.6657 11.617 62.2048
372 124 5 -0.834 20.2637 12.4591 62.4409
373 125 2 0.417 1.51828 15.4576 55.6325
374 125 2 0.417 1.68469 16.8683 55.5083
375 125 5 -0.834 1.75877 16.1177 54.9731
376 126 2 0.417 11.8014 20.8735 80.4226
377 126 2 0.417 12.64 21.9479 81.1477
378 126 5 -0.834 11.8674 21.8875 80.5532
379 127 2 0.417 22.5778 20.1949 46.7625
380 127 2 0.417 21.3414 19.4907 46.4069
381 127 5 -0.834 21.6669 20.0709 47.0656
382 128 2 0.417 19.7801 5.45674 37.6588
383 128 2 0.417 19.9907 6.49574 36.5517
384 128 5 -0.834 20.1953 5.55329 36.7927
385 129 2 0.417 8.18619 7.55758 89.0208
386 129 2 0.417 7.90954 8.14499 87.761
387 129 5 -0.834 8.64787 7.95912 88.3038
388 130 2 0.417 3.93042 0.808037 76.0082
389 130 2 0.417 5.11567 24.0194 76.3122
390 130 5 -0.834 4.43053 24.0127 75.5912
391 131 2 0.417 4.92833 5.56964 62.3511
392 131 2 0.417 4.12543 5.5201 63.5836
393 131 5 -0.834 4.02955 5.5187 62.6629
394 132 2 0.417 19.7309 6.66637 51.9289
395 132 2 0.417 20.6082 6.02157 52.8674
396 132 5 -0.834 20.0785 5.74151 52.1429
397 133 2 0.417 20.245 8.53101 88.811
398 133 2 0.417 21.2636 9.13815 89.7291
399 133 5 -0.834 20.3566 9.28186 89.4049
400 134 2 0.417 5.2394 19.7463 34.6535
401 134 2 0.417 5.77304 19.3042 33.3977
402 134 5 -0.834 5.77852 18.9883 34.3086
403 135 2 0.417 12.0538 23.3984 79.5822
404 135 2 0.417 12.2407 0.868613 79.2229
405 135 5 -0.834 12.0762 23.9825 78.8075
406 136 2 0.417 11.4592 0.673817 51.9781
407 136 2 0.417 12.117 23.8782 53.054
408 136 5 -0.834 12.0984 23.9487 52.09
409 137 2 0.417 15.6261 2.33921 52.866
410 137 2 0.417 16.2426 1.75383 54.0606
411 137 5 -0.834 16.3266 1.70291 53.0774
412 138 2 0.417 18.6411 14.1019 57.6812
413 138 2 0.417 18.7583 12.6234 57.7744
414 138 5 -0.834 19.2023 13.3729 57.4447
415 139 2 0.417 1.60319 10.6675 92.369
416 139 2 0.417 2.5942 9.72643 91.8867
417 139 5 -0.834 1.7748 10.1801 91.5685
418 140 2 0.417 19.2888 6.25586 49.1949
419 140 2 0.417 20.2705 5.01617 49.2895
420 140 5 -0.834 19.4989 5.39458 48.7234
421 141 2 0.417 16.6557 18.8351 69.6905
422 141 2 0.417 15.4634 19.9624 69.5439
423 141 5 -0.834 16.1121 19.3837 69.0456
424 142 2 0.417 8.129 6.48368 68.6105
425 142 2 0.417 6.51498 6.4621 68.3109
426 142 5 -0.834 7.325 7.05497 68.2326
427 143 2 0.417 23.0953 0.683167 78.8462
428 143 2 0.417 23.2125 1.14616 77.4183
429 143 5 -0.834 23.6577 1.25309 78.247
430 144 2 0.417 9.99042 6.82794 41.8268
431 144 2 0.417 9.7174 5.83177 42.9839
432 144 5 -0.834 9.7956 6.78581 42.8099
433 145 2 0.417 2.01523 12.071 64.6275
434 145 2 0.417 2.35597 13.1265 63.6052
435 145 5 -0.834 1.75006 12.3662 63.7482
436 146 2 0.417 23.4561 15.2999 16.1116
437 146 2 0.417 22.344 15.8933 16.9575
438 146 5 -0.834 23.156 16.1916 16.4968
439 147 2 0.417 11.271 4.38018 60.279
440 147 2 0.417 11.2147 5.61665 61.1098
441 147 5 -0.834 10.7626 5.19876 60.333
442 148 2 0.417 10.9576 13.6059 37.6431
443 148 2 0.417 11.187 14.5718 36.5423
444 148 5 -0.834 10.6555 13.7234 36.7468
445 149 2 0.417 24.0961 4.02737 5.05893
446 149 2 0.417 23.5439 3.46249 6.33416
447 149 5 -0.834 0.296392 3.95705 5.9748
448 150 2 0.417 16.2926 22.018 51.7026
449 150 2 0.417 15.7099 20.9834 52.528
450 150 5 -0.834 16.2686 21.0314 51.7685
451 151 2 0.417 5.81063 8.73787 90.9877
452 151 2 0.417 6.23559 7.3028 90.6644
453 151 5 -0.834 5.6975 8.05326 90.2991
454 152 2 0.417 1.65231 3.12615 6.77448
455 152 2 0.417 2.93596 2.12697 6.74649
456 152 5 -0.834 2.19084 2.52242 7.28462
457 153 2 0.417 13.9698 2.83388 48.2635
458 153 2 0.417 15.0293 3.95185 48.3595
459 153 5 -0.834 14.3497 3.59499 47.7631
460 154 2 0.417 20.3713 2.57659 62.1271
461 154 2 0.417 19.7194 2.96065 60.8338
462 154 5 -0.834 20.3931 2.35965 61.1913
463 155 2 0.417 13.3873 22.8173 43.9624
464 155 2 0.417 14.8061 22.5145 44.2541
465 155 5 -0.834 14.1751 22.504 43.5229
466 156 2 0.417 4.98847 0.949221 49.5207
467 156 2 0.417 4.45683 24.0356 48.4632
468 156 5 -0.834 4.52872 24.0863 49.4367
469 157 2 0.417 14.4358 23.7064 80.6861
470 157 2 0.417 14.7737 24.0987 82.1282
471 157 5 -0.834 14.1901 0.293164 81.3975
472 158 2 0.417 7.07514 15.5123 39.8176
473 158 2 0.417 6.30578 15.7673 41.0095
474 158 5 -0.834 6.17946 15.3612 40.1471
475 159 2 0.417 20.926 19.0659 24.7259
476 159 2 0.417 19.8855 18.7909 23.6665
477 159 5 -0.834 20.1772 18.4918 24.5666
478 160 2 0.417 13.7669 7.95439 52.893
479 160 2 0.417 13.9068 7.26753 51.558
480 160 5 -0.834 13.1731 7.66491 52.1185
481 161 2 0.417 20.501 18.3426 75.3205
482 161 2 0.417 20.8422 18.9944 74.0373
483 161 5 -0.834 21.0081 18.1533 74.5644
484 162 2 0.417 9.02211 14.5911 90.7097
485 162 2 0.417 8.56947 13.68 89.666
486 162 5 -0.834 8.96238 14.5748 89.7142
487 163 2 0.417 18.159 9.52365 55.3428
488 163 2 0.417 16.8573 10.1241 55.2077
489 163 5 -0.834 17.413 9.51669 54.6847
490 164 2 0.417 2.78105 5.31177 91.4115
491 164 2 0.417 1.77807 6.45308 91.1829
492 164 5 -0.834 2.47046 6.09777 91.8858
493 165 2 0.417 12.4169 18.6555 70.9026
494 165 2 0.417 13.6397 18.279 69.9321
495 165 5 -0.834 13.2421 18.9992 70.54
496 166 2 0.417 11.1582 1.48074 13.6178
497 166 2 0.417 11.8118 0.457724 12.7389
498 166 5 -0.834 11.6536 1.42846 12.8167
499 167 2 0.417 20.0905 7.16673 56.2802
500 167 2 0.417 19.0747 6.78115 55.2049
501 167 5 -0.834 19.5323 7.50045 55.5647
502 168 2 0.417 11.4013 16.8354 40.283
503 168 2 0.417 11.58 16.8146 38.7253
504 168 5 -0.834 11.0695 16.4276 39.4746
505 169 2 0.417 18.5565 18.2361 40.3026
506 169 2 0.417 17.1436 17.5992 40.9587
507 169 5 -0.834 17.5684 18.0036 40.1365
508 170 2 0.417 2.14359 1.47352 55.6369
509 170 2 0.417 3.45434 1.24994 55.2649
510 170 5 -0.834 2.607 0.780901 55.1166
511 171 2 0.417 1.97659 14.3085 52.5677
512 171 2 0.417 1.87198 15.5843 53.3556
513 171 5 -0.834 1.6081 15.1603 52.4935
514 172 2 0.417 8.22473 10.3516 82.078
515 172 2 0.417 7.0811 9.59152 81.7623
516 172 5 -0.834 7.84973 9.88907 81.2916
517 173 2 0.417 17.3669 0.481084 36.7223
518 173 2 0.417 17.3214 23.1166 37.409
519 173 5 -0.834 17.6736 23.5116 36.5729
520 174 2 0.417 19.4027 12.5704 55.8639
521 174 2 0.417 19.9252 13.5424 54.8158
522 174 5 -0.834 19.7632 12.5227 54.9084
523 175 2 0.417 23.8703 4.8778 61.7432
524 175 2 0.417 0.262127 5.09844 63.1387
525 175 5 -0.834 0.29163 5.54484 62.2953
526 176 2 0.417 9.51026 1.73694 50.0887
527 176 2 0.417 10.0014 3.08031 50.6647
528 176 5 -0.834 10.1772 2.46085 49.9304
529 177 2 0.417 21.677 17.5922 42.7874
530 177 2 0.417 21.1608 16.3133 42.5685
531 177 5 -0.834 21.3618 17.1021 42.0722
532 178 2 0.417 6.0327 10.3838 15.3605
533 178 2 0.417 5.48213 11.6456 14.748
534 178 5 -0.834 5.60478 11.2021 15.5533
535 179 2 0.417 9.46668 1.08733 73.6905
536 179 2 0.417 8.9303 2.30801 74.3994
537 179 5 -0.834 8.92415 1.8622 73.528
538 180 2 0.417 17.0367 4.19858 49.8924
539 180 2 0.417 17.4547 4.64529 48.603
540 180 5 -0.834 16.5912 4.44431 49.0407
541 181 2 0.417 10.4843 10.378 78.3456
542 181 2 0.417 9.73009 9.004 78.1127
543 181 5 -0.834 10.3373 9.63594 77.7245
544 182 2 0.417 12.5004 1.06654 9.84697
545 182 2 0.417 12.5198 1.51729 11.2759
546 182 5 -0.834 13.1486 1.36598 10.5414
547 183 2 0.417 2.00642 8.76472 90.3254
548 183 2 0.417 2.71521 8.39125 89.0974
549 183 5 -0.834 2.00246 8.00884 89.6431
550 184 2 0.417 10.2155 4.22864 47.0425
551 184 2 0.417 9.74162 3.4035 48.2333
552 184 5 -0.834 9.77954 3.37842 47.2241
553 185 2 0.417 8.59965 2.12873 47.4237
554 185 2 0.417 7.44258 1.66053 48.2829
555 185 5 -0.834 8.05982 1.37727 47.6462
556 186 2 0.417 13.7367 3.16738 79.5128
557 186 2 0.417 12.8278 2.54104 80.3625
558 186 5 -0.834 12.8813 2.64161 79.4331
559 187 2 0.417 22.5079 8.1844 56.7534
560 187 2 0.417 23.54 7.20598 57.154
561 187 5 -0.834 23.136 7.53576 56.3496
562 188 2 0.417 22.854 22.7301 26.1007
563 188 2 0.417 22.7011 23.68 24.9778
564 188 5 -0.834 22.7947 22.7544 25.1558
565 189 2 0.417 4.1254 23.6903 58.9349
566 189 2 0.417 5.13536 0.476838 58.3263
567 189 5 -0.834 4.77126 23.586 58.2346
568 190 2 0.417 12.8442 19.9914 61.3226
569 190 2 0.417 11.4628 20.2239 62.0241
570 190 5 -0.834 12.4133 20.2475 62.1956
571 191 2 0.417 19.768 11.4044 37.9742
572 191 2 0.417 20.1496 9.99362 38.608
573 191 5 -0.834 20.5018 10.8665 38.2987
574 192 2 0.417 16.1172 11.7724 88.7014
575 192 2 0.417 14.9039 11.4 89.5354
576 192 5 -0.834 15.627 12.0247 89.5209
577 193 2 0.417 9.39235 19.0811 49.5788
578 193 2 0.417 9.83981 19.9676 48.5749
579 193 5 -0.834 9.71414 20.0029 49.5408
580 194 2 0.417 17.5714 7.39386 73.6891
581 194 2 0.417 18.8136 7.61361 72.6891
582 194 5 -0.834 17.9013 7.97744 72.9587
583 195 2 0.417 14.943 5.28936 38.7301
584 195 2 0.417 14.0068 5.04423 39.7249
585 195 5 -0.834 14.0963 4.91303 38.8004
586 196 2 0.417 22.1474 15.8955 57.7967
587 196 2 0.417 22.9216 16.4696 56.5652
588 196 5 -0.834 23.0296 15.9413 57.3963
589 197 2 0.417 21.4603 21.0736 72.6925
590 197 2 0.417 20.4885 21.2445 73.893
591 197 5 -0.834 20.824 20.5946 73.2355
592 198 2 0.417 15.2874 5.02346 52.8301
593 198 2 0.417 14.1683 4.06817 52.8832
594 198 5 -0.834 14.9986 4.29889 53.4266
595 199 2 0.417 14.6266 4.62434 91.8291
596 199 2 0.417 15.98 5.29457 91.5547
597 199 5 -0.834 15.0684 5.43633 91.4141
598 200 2 0.417 12.4467 21.0553 89.1501
599 200 2 0.417 11.8453 20.5601 90.4046
600 200 5 -0.834 11.9301 20.2384 89.5037
601 201 2 0.417 22.9799 16.9645 54.4944
602 201 2 0.417 23.5394 18.3617 54.7792
603 201 5 -0.834 23.0652 17.6033 55.2503
604 202 2 0.417 10.6668 19.2202 79.8457
605 202 2 0.417 11.6604 18.2605 80.4755
606 202 5 -0.834 11.5857 19.0725 79.9039
607 203 2 0.417 1.3169 23.7 60.0742
608 203 2 0.417 1.94176 1.01452 59.895
609 203 5 -0.834 2.15626 24.092 60.238
610 204 2 0.417 2.84188 5.72153 39.0634
611 204 2 0.417 2.92854 6.03811 37.5298
612 204 5 -0.834 3.44469 5.80555 38.3353
613 205 2 0.417 5.6778 20.834 37.8614
614 205 2 0.417 4.86708 19.6625 38.2177
615 205 5 -0.834 4.98351 20.2997 37.508
616 206 2 0.417 17.862 22.874 88.9521
617 206 2 0.417 16.3561 22.9607 89.1256
618 206 5 -0.834 17.0472 22.9228 88.4038
619 207 2 0.417 12.8642 23.386 90.2827
620 207 2 0.417 13.4199 22.9686 88.8948
621 207 5 -0.834 12.5701 22.9855 89.4307
622 208 2 0.417 2.5501 8.36649 48.7863
623 208 2 0.417 2.02042 7.03011 49.2067
624 208 5 -0.834 2.37242 7.47053 48.4062
625 209 2 0.417 8.29642 11.9852 36.8815
626 209 2 0.417 9.61655 11.3123 36.7997
627 209 5 -0.834 8.91482 11.5896 36.1687
628 210 2 0.417 13.9718 22.6032 41.5301
629 210 2 0.417 13.2479 23.4469 40.6644
630 210 5 -0.834 13.7884 22.6567 40.6008
631 211 2 0.417 20.6807 6.27959 9.34972
632 211 2 0.417 21.9217 5.62304 10.0304
633 211 5 -0.834 21.0056 5.80786 10.2174
634 212 2 0.417 10.8328 23.7279 89.9784
635 212 2 0.417 10.6961 1.03717 90.5243
636 212 5 -0.834 10.1932 24.2307 90.4915
637 213 2 0.417 13.8746 3.35667 55.0997
638 213 2 0.417 14.6539 3.41761 56.4242
639 213 5 -0.834 13.7563 3.28291 56.0482
640 214 2 0.417 12.4885 12.6984 78.2973
641 214 2 0.417 12.7089 12.1125 76.9466
642 214 5 -0.834 12.6203 12.9875 77.3387
643 215 2 0.417 22.0744 10.3143 93.0783
644 215 2 0.417 22.3821 11.4439 93.9424
645 215 5 -0.834 21.7498 11.2399 93.2104
646 216 2 0.417 14.1327 18.8533 84.6888
647 216 2 0.417 14.925 17.7422 85.1739
648 216 5 -0.834 15.0328 18.6116 84.9558
649 217 2 0.417 12.9336 3.23871 82.9414
650 217 2 0.417 11.865 3.92215 82.2074
651 217 5 -0.834 12.3367 3.07742 82.1481
652 218 2 0.417 14.7248 1.88466 77.1105
653 218 2 0.417 13.5697 2.60946 77.3684
654 218 5 -0.834 14.3706 2.72141 76.8675
655 219 2 0.417 4.42596 14.2715 58.2438
656 219 2 0.417 3.15629 14.3861 57.5531
657 219 5 -0.834 4.06441 14.2359 57.3623
658 220 2 0.417 20.0999 17.3117 88.1563
659 220 2 0.417 21.0087 16.1248 87.9184
660 220 5 -0.834 20.3771 16.7129 87.4203
661 221 2 0.417 21.3092 16.456 40.0949
662 221 2 0.417 22.2596 16.067 38.895
663 221 5 -0.834 21.4333 16.5826 39.1265
664 222 2 0.417 19.6463 16.784 64.8973
665 222 2 0.417 19.7157 18.2678 64.2048
666 222 5 -0.834 19.4169 17.746 65.0074
667 223 2 0.417 5.95994 7.02309 87.3371
668 223 2 0.417 5.38322 8.32886 87.0762
669 223 5 -0.834 6.27463 7.85996 86.9165
670 224 2 0.417 16.926 9.54933 82.4314
671 224 2 0.417 15.4298 9.20604 82.1494
672 224 5 -0.834 16.3413 8.92368 81.9138
673 225 2 0.417 0.427014 5.61506 65.6997
674 225 2 0.417 23.3052 5.12393 64.866
675 225 5 -0.834 24.2218 4.87883 65.0934
676 226 2 0.417 1.77301 22.8817 86.7045
677 226 2 0.417 1.35623 21.6174 87.2385
678 226 5 -0.834 1.05237 22.2512 86.5945
679 227 2 0.417 15.9294 20.7329 75.8188
680 227 2 0.417 14.844 21.6714 76.3798
681 227 5 -0.834 15.651 21.1489 76.6182
682 228 2 0.417 9.0919 17.9709 44.7401
683 228 2 0.417 8.9143 17.377 43.427
684 228 5 -0.834 8.90448 17.0615 44.3536
685 229 2 0.417 19.2584 20.2834 39.7465
686 229 2 0.417 18.3754 21.5308 39.5751
687 229 5 -0.834 19.1792 21.1173 39.2454
688 230 2 0.417 6.13047 5.67622 56.2978
689 230 2 0.417 6.32735 4.78357 57.4282
690 230 5 -0.834 5.65768 4.95234 56.7176
691 231 2 0.417 14.9019 7.23383 36.5886
692 231 2 0.417 14.2178 7.89831 37.7434
693 231 5 -0.834 14.1518 7.86443 36.8162
694 232 2 0.417 7.38527 22.7974 59.3977
695 232 2 0.417 8.8323 22.6646 59.3888
696 232 5 -0.834 8.079 22.4386 58.8359
697 233 2 0.417 11.1594 16.1313 64.6592
698 233 2 0.417 10.5854 14.8268 64.4587
699 233 5 -0.834 10.8677 15.4083 65.1864
700 234 2 0.417 12.4987 5.85491 89.7027
701 234 2 0.417 13.8952 5.27256 90.2226
702 234 5 -0.834 13.3501 5.43995 89.3897
703 235 2 0.417 7.12154 8.95699 68.3034
704 235 2 0.417 6.31319 10.0816 67.9951
705 235 5 -0.834 6.77622 9.6989 68.778
706 236 2 0.417 3.61386 2.01047 37.2191
707 236 2 0.417 3.65542 3.46757 37.1351
708 236 5 -0.834 3.53798 2.77724 37.7493
709 237 2 0.417 22.0845 7.06607 11.9653
710 237 2 0.417 21.2933 7.60575 13.0338
711 237 5 -0.834 22.1679 7.71596 12.6767
712 238 2 0.417 10.8508 10.2128 38.7285
713 238 2 0.417 11.3878 11.3517 38.012
714 238 5 -0.834 10.6934 10.6596 37.8571
715 239 2 0.417 8.98695 9.90291 76.58
716 239 2 0.417 7.85814 9.2062 75.8832
717 239 5 -0.834 8.10771 10.0707 76.1612
718 240 2 0.417 10.6887 16.4738 86.9629
719 240 2 0.417 11.3505 17.6001 86.2269
720 240 5 -0.834 11.3851 16.6732 86.3466
721 241 2 0.417 10.6586 13.3216 44.2533
722 241 2 0.417 11.9436 13.005 43.4162
723 241 5 -0.834 11.1244 12.5768 43.7766
724 242 2 0.417 23.1493 24.2229 56.5577
725 242 2 0.417 23.7364 1.46538 56.1109
726 242 5 -0.834 22.934 0.957283 55.9539
727 243 2 0.417 1.52433 16.438 91.4584
728 243 2 0.417 1.70897 15.0412 91.0086
729 243 5 -0.834 2.05288 15.8733 90.8571
730 244 2 0.417 16.519 2.33974 85.5209
731 244 2 0.417 16.8625 3.43316 84.3941
732 244 5 -0.834 16.1548 3.16179 85.0301
733 245 2 0.417 10.7943 18.3104 47.185
734 245 2 0.417 9.86917 17.1513 47.4433
735 245 5 -0.834 10.0376 18.0214 47.7768
736 246 2 0.417 22.5841 9.93363 81.8822
737 246 2 0.417 23.573 10.8871 82.4463
738 246 5 -0.834 22.8739 10.886 81.79
739 247 2 0.417 2.07542 3.30751 59.6316
740 247 2 0.417 0.561054 3.08856 59.6866
741 247 5 -0.834 1.43523 2.61634 59.532
742 248 2 0.417 13.5725 10.6992 37.7411
743 248 2 0.417 14.507 11.2842 36.6172
744 248 5 -0.834 13.7433 10.6198 36.7351
745 249 2 0.417 7.32111 3.01836 75.2952
746 249 2 0.417 6.18089 2.83352 76.2381
747 249 5 -0.834 6.43726 2.60374 75.348
748 250 2 0.417 4.30085 14.3842 37.0751
749 250 2 0.417 4.85304 15.0219 35.836
750 250 5 -0.834 5.1346 14.5385 36.5529
751 251 2 0.417 22.6654 18.9016 36.9001
752 251 2 0.417 23.7824 18.295 36.4227
753 251 5 -0.834 22.8724 18.0692 36.4588