 DBCSR| CPU Multiplication driver                                           XSMM
 DBCSR| Multrec recursion limit                                              512
 DBCSR| Multiplication stack size                                           1000
 DBCSR| Maximum elements for images                                    UNLIMITED
 DBCSR| Multiplicative factor virtual images                                   1
 DBCSR| Use multiplication densification                                       T
 DBCSR| Multiplication size stacks                                             3
 DBCSR| Number of 3D layers                                               SINGLE
 DBCSR| Use MPI memory allocation                                              T
 DBCSR| Use RMA algorithm                                                      F
 DBCSR| Use Communication thread                                               T
 DBCSR| Communication thread load                                             87


  **** **** ******  **  PROGRAM STARTED AT               2022-07-05 19:05:38.997
 ***** ** ***  *** **   PROGRAM STARTED ON         node0693.palmetto.clemson.edu
 **    ****   ******    PROGRAM STARTED BY                               xiutinc
 ***** **    ** ** **   PROGRAM PROCESS ID                               1161622
  **** **  *******  **  PROGRAM STARTED IN  /scratch1/xiutinc/CP2K-5305494.pbs02

 CP2K| version string:                                          CP2K version 7.1
 CP2K| source code revision number:                                  git:e635599
 CP2K| cp2kflags: libint fftw3 libxc parallel mpi3 scalapack xsmm               
 CP2K| is freely available from                            https://www.cp2k.org/
 CP2K| Program compiled at                          Wed Aug 12 10:01:37 EDT 2020
 CP2K| Program compiled on                           util02.palmetto.clemson.edu
 CP2K| Program compiled for                          linux-centos8-ivybridge-gcc
 CP2K| Data directory path    /software/spackages/linux-centos8-ivybridge/gcc-8.
 CP2K| Input file name                                             intE04_aq.inp

 GLOBAL| Force Environment number                                              1
 GLOBAL| Basis set file name                                          BASIS_file
 GLOBAL| Potential file name                                     POTENTIALS_file
 GLOBAL| MM Potential file name                                     MM_POTENTIAL
 GLOBAL| Coordinate file name                                    ./intE04_aq.xyz
 GLOBAL| Method name                                                        CP2K
 GLOBAL| Project name                                                  intE04_aq
 GLOBAL| Preferred FFT library                                             FFTW3
 GLOBAL| Preferred diagonalization lib.                                       SL
 GLOBAL| Run type                                                        GEO_OPT
 GLOBAL| All-to-all communication in single precision                          F
 GLOBAL| FFTs using library dependent lengths                                  F
 GLOBAL| Global print level                                                  LOW
 GLOBAL| MPI I/O enabled                                                       T
 GLOBAL| Total number of message passing processes                            24
 GLOBAL| Number of threads for this process                                    1
 GLOBAL| This output is from process                                           0
 GLOBAL| CPU model name                Intel(R) Xeon(R) CPU E5-2680 v3 @ 2.50GHz
 GLOBAL| CPUID                                                              1002
 GLOBAL| Compiled for CPUID                                                 1001

 MEMORY| system memory details [Kb]
 MEMORY|                        rank 0           min           max       average
 MEMORY| MemTotal            131661896     131661896     131661896     131661896
 MEMORY| MemFree             123150020     123129896     123150020     123144989
 MEMORY| Buffers                  6392          6392          6392          6392
 MEMORY| Cached                3642712       3642712       3642712       3642712
 MEMORY| Slab                  1021816       1021816       1021816       1021816
 MEMORY| SReclaimable           440880        440880        440880        440880
 MEMORY| MemLikelyFree       127240004     127219880     127240004     127234973


 *******************************************************************************
 *******************************************************************************
 **                                                                           **
 **     #####                         ##              ##                      **
 **    ##   ##            ##          ##              ##                      **
 **   ##     ##                       ##            ######                    **
 **   ##     ##  ##   ##  ##   #####  ##  ##   ####   ##    #####    #####    **
 **   ##     ##  ##   ##  ##  ##      ## ##   ##      ##   ##   ##  ##   ##   **
 **   ##  ## ##  ##   ##  ##  ##      ####     ###    ##   ######   ######    **
 **    ##  ###   ##   ##  ##  ##      ## ##      ##   ##   ##       ##        **
 **     #######   #####   ##   #####  ##  ##  ####    ##    #####   ##        **
 **           ##                                                    ##        **
 **                                                                           **
 **                                                ... make the atoms dance   **
 **                                                                           **
 **            Copyright (C) by CP2K developers group (2000 - 2019)           **
 **                                                                           **
 *******************************************************************************


 TOTAL NUMBERS AND MAXIMUM NUMBERS

  Total number of            - Atomic kinds:                                   5
                             - Atoms:                                        654
                             - Shell sets:                                   654
                             - Shells:                                      3165
                             - Primitive Cartesian functions:               3081
                             - Cartesian basis functions:                   8687
                             - Spherical basis functions:                   8083

  Maximum angular momentum of- Orbital basis functions:                        3
                             - Local part of the GTH pseudopotential:          2
                             - Non-local part of the GTH pseudopotential:      3


 SCF PARAMETERS         Density guess:                                   RESTART
                        --------------------------------------------------------
                        max_scf:                                             500
                        max_scf_history:                                       0
                        max_diis:                                              4
                        --------------------------------------------------------
                        eps_scf:                                        1.00E-06
                        eps_scf_history:                                0.00E+00
                        eps_diis:                                       1.00E-01
                        eps_eigval:                                     1.00E-05
                        --------------------------------------------------------
                        level_shift [a.u.]:                                 0.00
                        --------------------------------------------------------
                        Outer loop SCF in use 
                        No variables optimised in outer loop
                        eps_scf                                         1.00E-06
                        max_scf                                               50
                        No outer loop optimization
                        step_size                                       5.00E-01

 BFGS| Use rational function optimization for step estimation:                NO
 BFGS| Use model Hessian for initial guess:                                  YES
 BFGS| Restart Hessian:                                                       NO
 BFGS| Trust radius:                                                       0.472

 *******************************************************************************
 ***                     STARTING GEOMETRY OPTIMIZATION                      ***
 ***                                   BFGS                                  ***
 *******************************************************************************

 Number of electrons:                                                       3278
 Number of occupied orbitals:                                               1639
 Number of molecular orbitals:                                              1639

 Number of orbital functions:                                               8083
 Number of independent orbital functions:                                   8083

 Extrapolation method: initial_guess

 *** WARNING in qs_initial_guess.F:280 :: User requested to restart the   ***
 *** wavefunction from the file named: intE04_aq-RESTART.wfn. This file   ***
 *** does not exist. Please check the existence of the file or change     ***
 *** properly the value of the keyword WFN_RESTART_FILE_NAME. Calculation ***
 *** continues using ATOMIC GUESS.                                        ***



 SCF WAVEFUNCTION OPTIMIZATION

  ----------------------------------- OT ---------------------------------------
  Minimizer      : CG                  : conjugate gradient
  Preconditioner : FULL_ALL            : diagonalization, state selective
  Precond_solver : DEFAULT
  Line search    : 2PNT                : 2 energies, one gradient
  stepsize       :    0.15000000                  energy_gap     :    0.00100000
  eps_taylor     :   0.10000E-15                  max_taylor     :             4
  ----------------------------------- OT ---------------------------------------

  Step     Update method      Time    Convergence         Total energy    Change
  ------------------------------------------------------------------------------
     1 OT CG       0.15E+00   38.1     0.01612104     -7185.6921433474 -7.19E+03
     2 OT LS       0.62E-01    4.2                    -7076.7129320691
     3 OT CG       0.62E-01   10.8     0.07034078     -7116.4685086407  6.92E+01
     4 OT LS       0.28E-01    4.2                    -6728.0299751236
     5 OT CG       0.28E-01   10.9     0.10888157     -6857.8071301147  2.59E+02
     6 OT LS       0.14E-01    4.2                    -6698.5903945595
     7 OT CG       0.14E-01   10.9     0.02653573     -7227.1315108960 -3.69E+02
     8 OT LS       0.15E-01    4.2                    -7276.7980434373
     9 OT CG       0.15E-01   10.8     0.01111446     -7278.9171764605 -5.18E+01
    10 OT LS       0.42E-01    4.2                    -7299.6241690797
    11 OT CG       0.42E-01   10.8     0.01278828     -7320.3736689728 -4.15E+01
    12 OT LS       0.17E-01    4.2                    -7292.4315708156
    13 OT CG       0.17E-01   10.8     0.01288090     -7342.7050296641 -2.23E+01
    14 OT LS       0.19E-01    4.2                    -7362.0006818902
    15 OT CG       0.19E-01   10.8     0.01251850     -7362.3832581397 -1.97E+01
    16 OT LS       0.15E-01    4.2                    -7376.8938351404
    17 OT CG       0.15E-01   10.8     0.00566943     -7376.7922713989 -1.44E+01
    18 OT LS       0.60E-01    4.2                    -7382.8089854141
    19 OT CG       0.60E-01   10.8     0.00572509     -7390.2736467283 -1.35E+01
    20 OT LS       0.36E-01    4.2                    -7394.0792774971
    21 OT CG       0.36E-01   10.9     0.00360742     -7397.2892438390 -7.02E+00
    22 OT LS       0.61E-01    4.2                    -7401.6372678280
    23 OT CG       0.61E-01   10.8     0.00226066     -7402.7992317030 -5.51E+00
    24 OT LS       0.74E-01    4.2                    -7405.4361677105
    25 OT CG       0.74E-01   10.8     0.00243772     -7405.4822515850 -2.68E+00
    26 OT LS       0.53E-01    4.2                    -7407.1303547710
    27 OT CG       0.53E-01   10.8     0.00193668     -7407.4530000601 -1.97E+00
    28 OT LS       0.62E-01    4.2                    -7408.9654796525
    29 OT CG       0.62E-01   10.8     0.00135719     -7409.0171526358 -1.56E+00
    30 OT LS       0.85E-01    4.2                    -7410.0246874728
    31 OT CG       0.85E-01   12.1     0.00127605     -7410.0792664263 -1.06E+00
    32 OT LS       0.85E-01    4.2                    -7410.9330631287
    33 OT CG       0.85E-01   10.8     0.00121147     -7410.9331484882 -8.54E-01
    34 OT LS       0.77E-01    4.2                    -7411.6656229060
    35 OT CG       0.77E-01   10.8     0.00096562     -7411.6717957932 -7.39E-01
    36 OT LS       0.89E-01    4.2                    -7412.2166031267
    37 OT CG       0.89E-01   10.9     0.00085139     -7412.2245602643 -5.53E-01
    38 OT LS       0.10E+00    4.2                    -7412.6962961851
    39 OT CG       0.10E+00   10.8     0.00081734     -7412.7034058064 -4.79E-01
    40 OT LS       0.88E-01    4.2                    -7413.0820844585
    41 OT CG       0.88E-01   10.8     0.00078179     -7413.0932617313 -3.90E-01
    42 OT LS       0.78E-01    4.2                    -7413.4027406866
    43 OT CG       0.78E-01   10.8     0.00075700     -7413.4085091476 -3.15E-01
    44 OT LS       0.77E-01    4.2                    -7413.6974365312
    45 OT CG       0.77E-01   10.8     0.00070378     -7413.6975721333 -2.89E-01
    46 OT LS       0.92E-01    4.2                    -7413.9895718232
    47 OT CG       0.92E-01   10.8     0.00065148     -7413.9974930114 -3.00E-01
    48 OT LS       0.91E-01    4.2                    -7414.2517394125
    49 OT CG       0.91E-01   10.8     0.00063423     -7414.2518082819 -2.54E-01
    50 OT LS       0.82E-01    4.2                    -7414.4666997219
    51 OT CG       0.82E-01   10.8     0.00060667     -7414.4692415704 -2.17E-01
    52 OT LS       0.83E-01    4.2                    -7414.6705664421
    53 OT CG       0.83E-01   10.9     0.00055667     -7414.6705821109 -2.01E-01
    54 OT LS       0.87E-01    4.2                    -7414.8493558076
    55 OT CG       0.87E-01   12.2     0.00051499     -7414.8498653925 -1.79E-01
    56 OT LS       0.85E-01    8.4                    -7414.9985463925
    57 OT CG       0.85E-01   13.1     0.00048580     -7414.9987063302 -1.49E-01
    58 OT LS       0.81E-01    4.2                    -7415.1258872296
    59 OT CG       0.81E-01   10.8     0.00043973     -7415.1260972374 -1.27E-01
    60 OT LS       0.88E-01    4.2                    -7415.2377369304
    61 OT CG       0.88E-01   10.8     0.00041010     -7415.2382978197 -1.12E-01
    62 OT LS       0.90E-01    4.2                    -7415.3385950760
    63 OT CG       0.90E-01   10.8     0.00038562     -7415.3386735057 -1.00E-01
    64 OT LS       0.86E-01    4.2                    -7415.4236795561
    65 OT CG       0.86E-01   10.8     0.00037120     -7415.4238458164 -8.52E-02
    66 OT LS       0.85E-01    4.2                    -7415.5013868860
    67 OT CG       0.85E-01   10.8     0.00034579     -7415.5014178241 -7.76E-02
    68 OT LS       0.89E-01    4.4                    -7415.5717294568
    69 OT CG       0.89E-01   10.8     0.00033160     -7415.5718597532 -7.04E-02
    70 OT LS       0.91E-01    4.2                    -7415.6374598829
    71 OT CG       0.91E-01   10.8     0.00031991     -7415.6374690061 -6.56E-02
    72 OT LS       0.90E-01    4.2                    -7415.6984050973
    73 OT CG       0.90E-01   10.8     0.00031136     -7415.6984061261 -6.09E-02
    74 OT LS       0.88E-01    4.2                    -7415.7549122497
    75 OT CG       0.88E-01   10.8     0.00029745     -7415.7549452719 -5.65E-02
    76 OT LS       0.89E-01    4.2                    -7415.8068792413
    77 OT CG       0.89E-01   10.8     0.00028614     -7415.8068792488 -5.19E-02
    78 OT LS       0.89E-01    4.2                    -7415.8549671055
    79 OT CG       0.89E-01   10.8     0.00027294     -7415.8549660605 -4.81E-02
    80 OT LS       0.92E-01    4.2                    -7415.9000579958
    81 OT CG       0.92E-01   10.8     0.00026580     -7415.9001028797 -4.51E-02
    82 OT LS       0.90E-01    4.2                    -7415.9423970425
    83 OT CG       0.90E-01   10.8     0.00025743     -7415.9424045384 -4.23E-02
    84 OT LS       0.88E-01    4.5                    -7415.9813216246
    85 OT CG       0.88E-01   10.8     0.00025098     -7415.9813412511 -3.89E-02
    86 OT LS       0.90E-01    4.2                    -7416.0187575603
    87 OT CG       0.90E-01   10.8     0.00024170     -7416.0187590521 -3.74E-02
    88 OT LS       0.94E-01    4.2                    -7416.0549018959
    89 OT CG       0.94E-01   10.8     0.00024038     -7416.0549649459 -3.62E-02
    90 OT LS       0.94E-01    4.2                    -7416.0905793084
    91 OT CG       0.94E-01   10.8     0.00024042     -7416.0905813040 -3.56E-02
    92 OT LS       0.92E-01    4.2                    -7416.1256957659
    93 OT CG       0.92E-01   10.8     0.00024079     -7416.1257100909 -3.51E-02
    94 OT LS       0.90E-01    4.2                    -7416.1600715012
    95 OT CG       0.90E-01   10.8     0.00023653     -7416.1601035287 -3.44E-02
    96 OT LS       0.92E-01    4.2                    -7416.1941357422
    97 OT CG       0.92E-01   10.8     0.00023503     -7416.1941488115 -3.40E-02
    98 OT LS       0.92E-01    4.2                    -7416.2275036006
    99 OT CG       0.92E-01   10.8     0.00023337     -7416.2275066620 -3.34E-02
   100 OT LS       0.93E-01    4.2                    -7416.2607438788
   101 OT CG       0.93E-01   10.9     0.00023247     -7416.2607442379 -3.32E-02
   102 OT LS       0.90E-01    4.2                    -7416.2930305439
   103 OT CG       0.90E-01   10.8     0.00022940     -7416.2930531418 -3.23E-02
   104 OT LS       0.90E-01    4.2                    -7416.3244293277
   105 OT CG       0.90E-01   10.8     0.00022455     -7416.3244303824 -3.14E-02
   106 OT LS       0.92E-01    4.2                    -7416.3550747050
   107 OT CG       0.92E-01   10.8     0.00022129     -7416.3550813733 -3.07E-02
   108 OT LS       0.93E-01    4.2                    -7416.3851738629
   109 OT CG       0.93E-01   12.6     0.00021943     -7416.3851760275 -3.01E-02
   110 OT LS       0.92E-01    4.2                    -7416.4143846624
   111 OT CG       0.92E-01   10.8     0.00021632     -7416.4143923097 -2.92E-02
   112 OT LS       0.91E-01    4.2                    -7416.4425574889
   113 OT CG       0.91E-01   10.8     0.00021164     -7416.4425617688 -2.82E-02
   114 OT LS       0.91E-01    4.2                    -7416.4696261781
   115 OT CG       0.91E-01   10.8     0.00020581     -7416.4696258993 -2.71E-02
   116 OT LS       0.93E-01    4.4                    -7416.4955663754
   117 OT CG       0.93E-01   10.8     0.00020165     -7416.4955718127 -2.59E-02
   118 OT LS       0.92E-01    4.2                    -7416.5202725039
   119 OT CG       0.92E-01   10.8     0.00019693     -7416.5202747902 -2.47E-02
   120 OT LS       0.91E-01    4.2                    -7416.5437328942
   121 OT CG       0.91E-01   10.8     0.00019089     -7416.5437340045 -2.35E-02
   122 OT LS       0.92E-01    4.2                    -7416.5658376833
   123 OT CG       0.92E-01   10.8     0.00018396     -7416.5658377593 -2.21E-02
   124 OT LS       0.92E-01    4.2                    -7416.5864653329
   125 OT CG       0.92E-01   10.8     0.00017821     -7416.5864660454 -2.06E-02
   126 OT LS       0.92E-01    4.2                    -7416.6058276189
   127 OT CG       0.92E-01   10.8     0.00017267     -7416.6058276101 -1.94E-02
   128 OT LS       0.91E-01    4.2                    -7416.6238563602
   129 OT CG       0.91E-01   10.8     0.00016654     -7416.6238576092 -1.80E-02
   130 OT LS       0.91E-01    4.2                    -7416.6405517072
   131 OT CG       0.91E-01   10.8     0.00015969     -7416.6405521111 -1.67E-02
   132 OT LS       0.92E-01    4.5                    -7416.6560348417
   133 OT CG       0.92E-01   11.6     0.00015420     -7416.6560359627 -1.55E-02
   134 OT LS       0.92E-01    7.5                    -7416.6704681018
   135 OT CG       0.92E-01   13.3     0.00014863     -7416.6704681052 -1.44E-02
   136 OT LS       0.93E-01    4.2                    -7416.6840008138
   137 OT CG       0.93E-01   10.8     0.00014369     -7416.6840021902 -1.35E-02
   138 OT LS       0.91E-01    4.2                    -7416.6964766985
   139 OT CG       0.91E-01   10.8     0.00013889     -7416.6964795020 -1.25E-02
   140 OT LS       0.90E-01    4.2                    -7416.7080344310
   141 OT CG       0.90E-01   10.8     0.00013320     -7416.7080353326 -1.16E-02
   142 OT LS       0.92E-01    4.2                    -7416.7188176510
   143 OT CG       0.92E-01   10.8     0.00012848     -7416.7188204307 -1.08E-02
   144 OT LS       0.92E-01    4.2                    -7416.7288813511
   145 OT CG       0.92E-01   10.8     0.00012420     -7416.7288814406 -1.01E-02
   146 OT LS       0.91E-01    4.2                    -7416.7382307181
   147 OT CG       0.91E-01   11.0     0.00012006     -7416.7382310473 -9.35E-03
   148 OT LS       0.91E-01    4.2                    -7416.7469187385
   149 OT CG       0.91E-01   10.8     0.00011526     -7416.7469190002 -8.69E-03
   150 OT LS       0.92E-01    4.2                    -7416.7549779059
   151 OT CG       0.92E-01   10.8     0.00011158     -7416.7549783160 -8.06E-03
   152 OT LS       0.92E-01    4.2                    -7416.7625406385
   153 OT CG       0.92E-01   10.8     0.00010803     -7416.7625406642 -7.56E-03
   154 OT LS       0.92E-01    4.2                    -7416.7696910231
   155 OT CG       0.92E-01   10.8     0.00010494     -7416.7696915940 -7.15E-03
   156 OT LS       0.92E-01    4.2                    -7416.7764402147
   157 OT CG       0.92E-01   10.8     0.00010222     -7416.7764402139 -6.75E-03
   158 OT LS       0.92E-01    4.2                    -7416.7828097581
   159 OT CG       0.92E-01   10.8     0.00009958     -7416.7828099418 -6.37E-03
   160 OT LS       0.92E-01    4.2                    -7416.7888731790
   161 OT CG       0.92E-01   11.4     0.00009717     -7416.7888732547 -6.06E-03
   162 OT LS       0.93E-01    4.2                    -7416.7946834894
   163 OT CG       0.93E-01   11.0     0.00009484     -7416.7946837311 -5.81E-03
   164 OT LS       0.93E-01    4.2                    -7416.8002147659
   165 OT CG       0.93E-01   10.8     0.00009295     -7416.8002147759 -5.53E-03
   166 OT LS       0.92E-01    4.2                    -7416.8054741156
   167 OT CG       0.92E-01   10.8     0.00009047     -7416.8054746995 -5.26E-03
   168 OT LS       0.92E-01    4.2                    -7416.8104761210
   169 OT CG       0.92E-01   10.8     0.00008824     -7416.8104761937 -5.00E-03
   170 OT LS       0.92E-01    4.2                    -7416.8152325612
   171 OT CG       0.92E-01   10.8     0.00008611     -7416.8152325622 -4.76E-03
   172 OT LS       0.92E-01    4.2                    -7416.8197612470
   173 OT CG       0.92E-01   10.8     0.00008387     -7416.8197612486 -4.53E-03
   174 OT LS       0.92E-01    4.2                    -7416.8240675632
   175 OT CG       0.92E-01   10.8     0.00008171     -7416.8240675817 -4.31E-03
   176 OT LS       0.92E-01    4.2                    -7416.8281543605
   177 OT CG       0.92E-01   10.8     0.00007977     -7416.8281543605 -4.09E-03
   178 OT LS       0.92E-01    4.2                    -7416.8320394578
   179 OT CG       0.92E-01   11.0     0.00007790     -7416.8320394830 -3.89E-03
   180 OT LS       0.93E-01    4.2                    -7416.8357646847
   181 OT CG       0.93E-01   10.8     0.00007596     -7416.8357647945 -3.73E-03
   182 OT LS       0.93E-01    4.2                    -7416.8393162451
   183 OT CG       0.93E-01   10.8     0.00007442     -7416.8393162626 -3.55E-03
   184 OT LS       0.92E-01    4.2                    -7416.8426993927
   185 OT CG       0.92E-01   10.9     0.00007266     -7416.8426996035 -3.38E-03
   186 OT LS       0.93E-01    4.2                    -7416.8459368426
   187 OT CG       0.93E-01   13.0     0.00007117     -7416.8459368943 -3.24E-03
   188 OT LS       0.93E-01    4.2                    -7416.8490520138
   189 OT CG       0.93E-01   10.8     0.00006960     -7416.8490520388 -3.12E-03
   190 OT LS       0.93E-01    4.2                    -7416.8520434362
   191 OT CG       0.93E-01   10.8     0.00006844     -7416.8520434766 -2.99E-03
   192 OT LS       0.93E-01    4.2                    -7416.8549199092
   193 OT CG       0.93E-01   10.9     0.00006706     -7416.8549200040 -2.88E-03
   194 OT LS       0.93E-01    4.2                    -7416.8576915563
   195 OT CG       0.93E-01   11.0     0.00006587     -7416.8576915898 -2.77E-03
   196 OT LS       0.93E-01    4.2                    -7416.8603522291
   197 OT CG       0.93E-01   10.8     0.00006480     -7416.8603522945 -2.66E-03
   198 OT LS       0.92E-01    4.2                    -7416.8629220630
   199 OT CG       0.92E-01   10.8     0.00006343     -7416.8629220789 -2.57E-03
   200 OT LS       0.93E-01    4.2                    -7416.8654012442
   201 OT CG       0.93E-01   10.8     0.00006213     -7416.8654013615 -2.48E-03
   202 OT LS       0.93E-01    4.2                    -7416.8677829487
   203 OT CG       0.93E-01   10.9     0.00006092     -7416.8677829502 -2.38E-03
   204 OT LS       0.92E-01    4.2                    -7416.8700554750
   205 OT CG       0.92E-01   10.8     0.00005976     -7416.8700555976 -2.27E-03
   206 OT LS       0.92E-01    4.2                    -7416.8722391563
   207 OT CG       0.92E-01   10.8     0.00005837     -7416.8722391612 -2.18E-03
   208 OT LS       0.93E-01    4.2                    -7416.8743311567
   209 OT CG       0.93E-01   10.8     0.00005709     -7416.8743311877 -2.09E-03
   210 OT LS       0.93E-01    4.2                    -7416.8763383132
   211 OT CG       0.93E-01   12.4     0.00005584     -7416.8763383316 -2.01E-03
   212 OT LS       0.93E-01    6.8                    -7416.8782552878
   213 OT CG       0.93E-01   13.4     0.00005473     -7416.8782552932 -1.92E-03
   214 OT LS       0.93E-01    4.2                    -7416.8800921918
   215 OT CG       0.93E-01   10.8     0.00005359     -7416.8800922026 -1.84E-03
   216 OT LS       0.92E-01    4.2                    -7416.8818508177
   217 OT CG       0.92E-01   10.8     0.00005249     -7416.8818508216 -1.76E-03
   218 OT LS       0.93E-01    4.2                    -7416.8835405668
   219 OT CG       0.93E-01   10.8     0.00005134     -7416.8835405689 -1.69E-03
   220 OT LS       0.93E-01    4.2                    -7416.8851649694
   221 OT CG       0.93E-01   10.8     0.00005022     -7416.8851650133 -1.62E-03
   222 OT LS       0.93E-01    4.2                    -7416.8867203642
   223 OT CG       0.93E-01   10.8     0.00004927     -7416.8867203652 -1.56E-03
   224 OT LS       0.92E-01    4.2                    -7416.8882070142
   225 OT CG       0.92E-01   10.8     0.00004827     -7416.8882070908 -1.49E-03
   226 OT LS       0.92E-01    4.2                    -7416.8896337291
   227 OT CG       0.92E-01   11.0     0.00004728     -7416.8896337292 -1.43E-03
   228 OT LS       0.93E-01    4.2                    -7416.8910061345
   229 OT CG       0.93E-01   10.8     0.00004634     -7416.8910061442 -1.37E-03
   230 OT LS       0.93E-01    4.2                    -7416.8923255458
   231 OT CG       0.93E-01   10.8     0.00004540     -7416.8923255465 -1.32E-03
   232 OT LS       0.93E-01    4.2                    -7416.8935962103
   233 OT CG       0.93E-01   10.8     0.00004460     -7416.8935962241 -1.27E-03
   234 OT LS       0.93E-01    4.2                    -7416.8948203948
   235 OT CG       0.93E-01   10.8     0.00004376     -7416.8948203990 -1.22E-03
   236 OT LS       0.93E-01    4.2                    -7416.8960003904
   237 OT CG       0.93E-01   10.8     0.00004304     -7416.8960003925 -1.18E-03
   238 OT LS       0.93E-01    4.2                    -7416.8971395082
   239 OT CG       0.93E-01   10.8     0.00004232     -7416.8971395133 -1.14E-03
   240 OT LS       0.93E-01    4.2                    -7416.8982471614
   241 OT CG       0.93E-01   10.8     0.00004173     -7416.8982471965 -1.11E-03
   242 OT LS       0.93E-01    4.2                    -7416.8993218507
   243 OT CG       0.93E-01   11.0     0.00004111     -7416.8993218567 -1.07E-03
   244 OT LS       0.94E-01    4.2                    -7416.9003702722
   245 OT CG       0.94E-01   10.8     0.00004065     -7416.9003703011 -1.05E-03
   246 OT LS       0.93E-01    4.2                    -7416.9013888968
   247 OT CG       0.93E-01   10.8     0.00004009     -7416.9013889428 -1.02E-03
   248 OT LS       0.93E-01    4.2                    -7416.9023838705
   249 OT CG       0.93E-01   10.8     0.00003961     -7416.9023838898 -9.95E-04
   250 OT LS       0.93E-01    4.2                    -7416.9033547707
   251 OT CG       0.93E-01   10.8     0.00003916     -7416.9033547707 -9.71E-04
   252 OT LS       0.93E-01    4.2                    -7416.9043004613
   253 OT CG       0.93E-01   10.8     0.00003858     -7416.9043004757 -9.46E-04
   254 OT LS       0.93E-01    4.2                    -7416.9052222325
   255 OT CG       0.93E-01   10.8     0.00003807     -7416.9052222481 -9.22E-04
   256 OT LS       0.94E-01    4.2                    -7416.9061202008
   257 OT CG       0.94E-01   10.8     0.00003752     -7416.9061202011 -8.98E-04
   258 OT LS       0.94E-01    4.2                    -7416.9069936485
   259 OT CG       0.94E-01   10.9     0.00003715     -7416.9069936505 -8.73E-04
   260 OT LS       0.93E-01    4.2                    -7416.9078420804
   261 OT CG       0.93E-01   10.8     0.00003660     -7416.9078421588 -8.49E-04
   262 OT LS       0.93E-01    4.2                    -7416.9086703762
   263 OT CG       0.93E-01   10.8     0.00003614     -7416.9086703996 -8.28E-04
   264 OT LS       0.93E-01    4.2                    -7416.9094760590
   265 OT CG       0.93E-01   13.1     0.00003561     -7416.9094760625 -8.06E-04
   266 OT LS       0.94E-01    4.2                    -7416.9102628863
   267 OT CG       0.94E-01   10.8     0.00003513     -7416.9102629148 -7.87E-04
   268 OT LS       0.94E-01    4.2                    -7416.9110281923
   269 OT CG       0.94E-01   10.8     0.00003468     -7416.9110281928 -7.65E-04
   270 OT LS       0.93E-01    4.2                    -7416.9117713681
   271 OT CG       0.93E-01   10.8     0.00003422     -7416.9117713785 -7.43E-04
   272 OT LS       0.93E-01    4.2                    -7416.9124926292
   273 OT CG       0.93E-01   10.8     0.00003369     -7416.9124926361 -7.21E-04
   274 OT LS       0.93E-01    4.2                    -7416.9131916170
   275 OT CG       0.93E-01   10.9     0.00003316     -7416.9131916170 -6.99E-04
   276 OT LS       0.94E-01    4.2                    -7416.9138739033
   277 OT CG       0.94E-01   10.8     0.00003270     -7416.9138739444 -6.82E-04
   278 OT LS       0.93E-01    4.2                    -7416.9145363067
   279 OT CG       0.93E-01   10.8     0.00003229     -7416.9145363101 -6.62E-04
   280 OT LS       0.93E-01    4.2                    -7416.9151794031
   281 OT CG       0.93E-01   10.8     0.00003190     -7416.9151794142 -6.43E-04
   282 OT LS       0.93E-01    4.2                    -7416.9158065665
   283 OT CG       0.93E-01   10.8     0.00003150     -7416.9158065668 -6.27E-04
   284 OT LS       0.93E-01    4.2                    -7416.9164190531
   285 OT CG       0.93E-01   10.8     0.00003111     -7416.9164190547 -6.12E-04
   286 OT LS       0.94E-01    4.2                    -7416.9170190589
   287 OT CG       0.94E-01   10.8     0.00003072     -7416.9170190692 -6.00E-04
   288 OT LS       0.94E-01    4.2                    -7416.9176047753
   289 OT CG       0.94E-01   10.8     0.00003032     -7416.9176047757 -5.86E-04
   290 OT LS       0.93E-01    5.5                    -7416.9181734129
   291 OT CG       0.93E-01   16.1     0.00002996     -7416.9181734202 -5.69E-04
   292 OT LS       0.93E-01    4.2                    -7416.9187277293
   293 OT CG       0.93E-01   10.8     0.00002958     -7416.9187277301 -5.54E-04
   294 OT LS       0.94E-01    4.2                    -7416.9192697548
   295 OT CG       0.94E-01   10.8     0.00002925     -7416.9192697603 -5.42E-04
   296 OT LS       0.94E-01    4.2                    -7416.9198007195
   297 OT CG       0.94E-01   10.8     0.00002888     -7416.9198007209 -5.31E-04
   298 OT LS       0.94E-01    4.2                    -7416.9203194186
   299 OT CG       0.94E-01   11.0     0.00002855     -7416.9203194205 -5.19E-04
   300 OT LS       0.94E-01    4.2                    -7416.9208256370
   301 OT CG       0.94E-01   10.8     0.00002829     -7416.9208256381 -5.06E-04
   302 OT LS       0.93E-01    4.2                    -7416.9213211089
   303 OT CG       0.93E-01   10.8     0.00002802     -7416.9213211139 -4.95E-04
   304 OT LS       0.94E-01    4.2                    -7416.9218075386
   305 OT CG       0.94E-01   10.8     0.00002770     -7416.9218075393 -4.86E-04
   306 OT LS       0.94E-01    4.3                    -7416.9222847842
   307 OT CG       0.94E-01   10.8     0.00002741     -7416.9222847893 -4.77E-04
   308 OT LS       0.94E-01    4.2                    -7416.9227509668
   309 OT CG       0.94E-01   10.8     0.00002713     -7416.9227509695 -4.66E-04
   310 OT LS       0.94E-01    4.2                    -7416.9232079950
   311 OT CG       0.94E-01   10.8     0.00002687     -7416.9232079952 -4.57E-04
   312 OT LS       0.94E-01    4.2                    -7416.9236553652
   313 OT CG       0.94E-01   10.8     0.00002666     -7416.9236553664 -4.47E-04
   314 OT LS       0.93E-01    4.2                    -7416.9240952375
   315 OT CG       0.93E-01   10.8     0.00002637     -7416.9240952383 -4.40E-04
   316 OT LS       0.94E-01    4.2                    -7416.9245280340
   317 OT CG       0.94E-01   10.8     0.00002612     -7416.9245280461 -4.33E-04
   318 OT LS       0.94E-01    4.2                    -7416.9249523410
   319 OT CG       0.94E-01   10.8     0.00002590     -7416.9249523415 -4.24E-04
   320 OT LS       0.94E-01    4.2                    -7416.9253689654
   321 OT CG       0.94E-01   10.8     0.00002571     -7416.9253689656 -4.17E-04
   322 OT LS       0.94E-01    4.4                    -7416.9257793127
   323 OT CG       0.94E-01   10.8     0.00002546     -7416.9257793128 -4.10E-04
   324 OT LS       0.94E-01    4.2                    -7416.9261817325
   325 OT CG       0.94E-01   10.8     0.00002520     -7416.9261817327 -4.02E-04
   326 OT LS       0.94E-01    4.2                    -7416.9265770709
   327 OT CG       0.94E-01   10.8     0.00002500     -7416.9265770734 -3.95E-04
   328 OT LS       0.93E-01    4.2                    -7416.9269635963
   329 OT CG       0.93E-01   10.8     0.00002475     -7416.9269636104 -3.87E-04
   330 OT LS       0.94E-01    4.2                    -7416.9273443563
   331 OT CG       0.94E-01   10.8     0.00002456     -7416.9273443647 -3.81E-04
   332 OT LS       0.94E-01    4.2                    -7416.9277185197
   333 OT CG       0.94E-01   10.8     0.00002432     -7416.9277185212 -3.74E-04
   334 OT LS       0.94E-01    4.2                    -7416.9280868420
   335 OT CG       0.94E-01   10.8     0.00002413     -7416.9280868462 -3.68E-04
   336 OT LS       0.94E-01    4.2                    -7416.9284489949
   337 OT CG       0.94E-01   10.8     0.00002395     -7416.9284489953 -3.62E-04
   338 OT LS       0.94E-01    4.4                    -7416.9288054653
   339 OT CG       0.94E-01   10.8     0.00002380     -7416.9288054657 -3.56E-04
   340 OT LS       0.94E-01    4.2                    -7416.9291573600
   341 OT CG       0.94E-01   10.8     0.00002360     -7416.9291573600 -3.52E-04
   342 OT LS       0.94E-01    4.2                    -7416.9295036580
   343 OT CG       0.94E-01   10.9     0.00002340     -7416.9295036582 -3.46E-04
   344 OT LS       0.94E-01    5.7                    -7416.9298436124
   345 OT CG       0.94E-01   10.8     0.00002318     -7416.9298436136 -3.40E-04
   346 OT LS       0.94E-01    4.2                    -7416.9301782285
   347 OT CG       0.94E-01   10.8     0.00002303     -7416.9301782321 -3.35E-04
   348 OT LS       0.94E-01    4.2                    -7416.9305080838
   349 OT CG       0.94E-01   10.8     0.00002287     -7416.9305080846 -3.30E-04
   350 OT LS       0.94E-01    4.2                    -7416.9308328459
   351 OT CG       0.94E-01   10.8     0.00002266     -7416.9308328463 -3.25E-04
   352 OT LS       0.94E-01    4.2                    -7416.9311538274
   353 OT CG       0.94E-01   10.8     0.00002253     -7416.9311538388 -3.21E-04
   354 OT LS       0.94E-01    4.3                    -7416.9314689871
   355 OT CG       0.94E-01   10.8     0.00002236     -7416.9314690009 -3.15E-04
   356 OT LS       0.94E-01    4.2                    -7416.9317800942
   357 OT CG       0.94E-01   10.8     0.00002222     -7416.9317800958 -3.11E-04
   358 OT LS       0.94E-01    4.2                    -7416.9320865135
   359 OT CG       0.94E-01   10.8     0.00002204     -7416.9320865158 -3.06E-04
   360 OT LS       0.94E-01    4.2                    -7416.9323882977
   361 OT CG       0.94E-01   10.8     0.00002182     -7416.9323882980 -3.02E-04
   362 OT LS       0.94E-01    4.2                    -7416.9326835884
   363 OT CG       0.94E-01   10.8     0.00002160     -7416.9326835896 -2.95E-04
   364 OT LS       0.94E-01    4.2                    -7416.9329730748
   365 OT CG       0.94E-01   10.8     0.00002141     -7416.9329730751 -2.89E-04
   366 OT LS       0.93E-01    4.2                    -7416.9332568196
   367 OT CG       0.93E-01   10.8     0.00002117     -7416.9332568217 -2.84E-04
   368 OT LS       0.93E-01    4.2                    -7416.9335341164
   369 OT CG       0.93E-01   17.9     0.00002092     -7416.9335341164 -2.77E-04
   370 OT LS       0.94E-01    4.2                    -7416.9338054233
   371 OT CG       0.94E-01   10.8     0.00002069     -7416.9338054241 -2.71E-04
   372 OT LS       0.93E-01    4.2                    -7416.9340701215
   373 OT CG       0.93E-01   10.8     0.00002045     -7416.9340701227 -2.65E-04
   374 OT LS       0.94E-01    4.2                    -7416.9343293285
   375 OT CG       0.94E-01   10.8     0.00002028     -7416.9343293298 -2.59E-04
   376 OT LS       0.94E-01    4.2                    -7416.9345843552
   377 OT CG       0.94E-01   10.8     0.00002006     -7416.9345843553 -2.55E-04
   378 OT LS       0.94E-01    4.2                    -7416.9348349311
   379 OT CG       0.94E-01   10.8     0.00001989     -7416.9348349342 -2.51E-04
   380 OT LS       0.94E-01    4.2                    -7416.9350805866
   381 OT CG       0.94E-01   10.8     0.00001970     -7416.9350805889 -2.46E-04
   382 OT LS       0.94E-01    4.2                    -7416.9353221811
   383 OT CG       0.94E-01   10.8     0.00001957     -7416.9353221831 -2.42E-04
   384 OT LS       0.94E-01    4.2                    -7416.9355596948
   385 OT CG       0.94E-01   11.0     0.00001942     -7416.9355596975 -2.38E-04
   386 OT LS       0.93E-01    4.2                    -7416.9357931738
   387 OT CG       0.93E-01   10.8     0.00001919     -7416.9357931746 -2.33E-04
   388 OT LS       0.94E-01    4.2                    -7416.9360222574
   389 OT CG       0.94E-01   10.8     0.00001900     -7416.9360222626 -2.29E-04
   390 OT LS       0.94E-01    4.2                    -7416.9362464672
   391 OT CG       0.94E-01   10.8     0.00001883     -7416.9362464677 -2.24E-04
   392 OT LS       0.94E-01    4.2                    -7416.9364664155
   393 OT CG       0.94E-01   10.8     0.00001869     -7416.9364664163 -2.20E-04
   394 OT LS       0.94E-01    4.2                    -7416.9366832581
   395 OT CG       0.94E-01   10.8     0.00001854     -7416.9366832584 -2.17E-04
   396 OT LS       0.94E-01    4.2                    -7416.9368973375
   397 OT CG       0.94E-01   10.8     0.00001842     -7416.9368973394 -2.14E-04
   398 OT LS       0.94E-01    4.2                    -7416.9371085630
   399 OT CG       0.94E-01   10.8     0.00001833     -7416.9371085631 -2.11E-04
   400 OT LS       0.94E-01    4.2                    -7416.9373182165
   401 OT CG       0.94E-01   11.0     0.00001825     -7416.9373182178 -2.10E-04
   402 OT LS       0.94E-01    4.2                    -7416.9375262891
   403 OT CG       0.94E-01   10.8     0.00001817     -7416.9375262896 -2.08E-04
   404 OT LS       0.94E-01    4.2                    -7416.9377320731
   405 OT CG       0.94E-01   10.8     0.00001811     -7416.9377320742 -2.06E-04
   406 OT LS       0.94E-01    4.2                    -7416.9379353123
   407 OT CG       0.94E-01   10.8     0.00001796     -7416.9379353196 -2.03E-04
   408 OT LS       0.94E-01    4.2                    -7416.9381362286
   409 OT CG       0.94E-01   10.8     0.00001784     -7416.9381362337 -2.01E-04
   410 OT LS       0.94E-01    4.2                    -7416.9383345610
   411 OT CG       0.94E-01   10.8     0.00001773     -7416.9383345612 -1.98E-04
   412 OT LS       0.94E-01    4.2                    -7416.9385297445
   413 OT CG       0.94E-01   10.8     0.00001757     -7416.9385297468 -1.95E-04
   414 OT LS       0.94E-01    4.2                    -7416.9387223229
   415 OT CG       0.94E-01   10.8     0.00001743     -7416.9387223262 -1.93E-04
   416 OT LS       0.94E-01    4.2                    -7416.9389108459
   417 OT CG       0.94E-01   11.1     0.00001730     -7416.9389108510 -1.89E-04
   418 OT LS       0.94E-01    4.2                    -7416.9390963417
   419 OT CG       0.94E-01   10.8     0.00001717     -7416.9390963422 -1.85E-04
   420 OT LS       0.94E-01    4.2                    -7416.9392799964
   421 OT CG       0.94E-01   10.8     0.00001703     -7416.9392800030 -1.84E-04
   422 OT LS       0.94E-01    7.0                    -7416.9394605791
   423 OT CG       0.94E-01   10.8     0.00001689     -7416.9394605791 -1.81E-04
   424 OT LS       0.94E-01    4.2                    -7416.9396378636
   425 OT CG       0.94E-01   10.8     0.00001676     -7416.9396378645 -1.77E-04
   426 OT LS       0.93E-01    4.2                    -7416.9398116488
   427 OT CG       0.93E-01   10.8     0.00001662     -7416.9398116529 -1.74E-04
   428 OT LS       0.94E-01    4.2                    -7416.9399829938
   429 OT CG       0.94E-01   10.8     0.00001646     -7416.9399829961 -1.71E-04
   430 OT LS       0.94E-01    4.2                    -7416.9401520102
   431 OT CG       0.94E-01   10.8     0.00001633     -7416.9401520140 -1.69E-04
   432 OT LS       0.94E-01    4.2                    -7416.9403185856
   433 OT CG       0.94E-01   11.0     0.00001621     -7416.9403185859 -1.67E-04
   434 OT LS       0.94E-01    4.2                    -7416.9404828653
   435 OT CG       0.94E-01   10.8     0.00001612     -7416.9404828653 -1.64E-04
   436 OT LS       0.94E-01    4.2                    -7416.9406445903
   437 OT CG       0.94E-01   10.8     0.00001605     -7416.9406445927 -1.62E-04
   438 OT LS       0.93E-01    4.2                    -7416.9408041796
   439 OT CG       0.93E-01   10.8     0.00001595     -7416.9408041840 -1.60E-04
   440 OT LS       0.94E-01    4.2                    -7416.9409628091
   441 OT CG       0.94E-01   10.8     0.00001581     -7416.9409628162 -1.59E-04
   442 OT LS       0.94E-01    4.2                    -7416.9411188540
   443 OT CG       0.94E-01   10.8     0.00001569     -7416.9411188545 -1.56E-04
   444 OT LS       0.94E-01    4.2                    -7416.9412721345
   445 OT CG       0.94E-01   10.8     0.00001557     -7416.9412721359 -1.53E-04
   446 OT LS       0.94E-01    4.2                    -7416.9414224586
   447 OT CG       0.94E-01   17.9     0.00001547     -7416.9414224611 -1.50E-04
   448 OT LS       0.93E-01    4.6                    -7416.9415701399
   449 OT CG       0.93E-01   10.8     0.00001531     -7416.9415701438 -1.48E-04
   450 OT LS       0.94E-01    4.2                    -7416.9417156203
   451 OT CG       0.94E-01   10.8     0.00001515     -7416.9417156246 -1.45E-04
   452 OT LS       0.94E-01    4.2                    -7416.9418586764
   453 OT CG       0.94E-01   10.8     0.00001502     -7416.9418586793 -1.43E-04
   454 OT LS       0.94E-01    4.2                    -7416.9419995017
   455 OT CG       0.94E-01   10.8     0.00001493     -7416.9419995020 -1.41E-04
   456 OT LS       0.94E-01    4.2                    -7416.9421376795
   457 OT CG       0.94E-01   10.8     0.00001483     -7416.9421376853 -1.38E-04
   458 OT LS       0.94E-01    4.2                    -7416.9422745916
   459 OT CG       0.94E-01   10.8     0.00001473     -7416.9422745933 -1.37E-04
   460 OT LS       0.94E-01    4.2                    -7416.9424093807
   461 OT CG       0.94E-01   10.8     0.00001465     -7416.9424093811 -1.35E-04
   462 OT LS       0.94E-01    4.2                    -7416.9425427327
   463 OT CG       0.94E-01   10.8     0.00001454     -7416.9425427328 -1.33E-04
   464 OT LS       0.94E-01    4.4                    -7416.9426747130
   465 OT CG       0.94E-01   10.8     0.00001446     -7416.9426747159 -1.32E-04
   466 OT LS       0.94E-01    4.2                    -7416.9428050334
   467 OT CG       0.94E-01   10.8     0.00001437     -7416.9428050338 -1.30E-04
   468 OT LS       0.94E-01    4.2                    -7416.9429336243
   469 OT CG       0.94E-01   10.8     0.00001431     -7416.9429336247 -1.29E-04
   470 OT LS       0.94E-01    4.2                    -7416.9430607407
   471 OT CG       0.94E-01   10.8     0.00001421     -7416.9430607417 -1.27E-04
   472 OT LS       0.94E-01    4.2                    -7416.9431866445
   473 OT CG       0.94E-01   10.8     0.00001414     -7416.9431866467 -1.26E-04
   474 OT LS       0.94E-01    4.2                    -7416.9433111340
   475 OT CG       0.94E-01   10.8     0.00001407     -7416.9433111344 -1.24E-04
   476 OT LS       0.94E-01    4.2                    -7416.9434345129
   477 OT CG       0.94E-01   10.8     0.00001397     -7416.9434345134 -1.23E-04
   478 OT LS       0.94E-01    4.2                    -7416.9435562241
   479 OT CG       0.94E-01   10.8     0.00001388     -7416.9435562241 -1.22E-04
   480 OT LS       0.94E-01    4.4                    -7416.9436758955
   481 OT CG       0.94E-01   10.8     0.00001380     -7416.9436758980 -1.20E-04
   482 OT LS       0.94E-01    4.2                    -7416.9437941570
   483 OT CG       0.94E-01   10.8     0.00001371     -7416.9437941570 -1.18E-04
   484 OT LS       0.94E-01    4.2                    -7416.9439112977
   485 OT CG       0.94E-01   10.8     0.00001362     -7416.9439112991 -1.17E-04
   486 OT LS       0.94E-01    4.2                    -7416.9440270339
   487 OT CG       0.94E-01   10.8     0.00001355     -7416.9440270341 -1.16E-04
   488 OT LS       0.94E-01    4.2                    -7416.9441417086
   489 OT CG       0.94E-01   10.8     0.00001350     -7416.9441417086 -1.15E-04
   490 OT LS       0.94E-01    4.2                    -7416.9442550452
   491 OT CG       0.94E-01   10.8     0.00001344     -7416.9442550470 -1.13E-04
   492 OT LS       0.94E-01    4.2                    -7416.9443672341
   493 OT CG       0.94E-01   10.8     0.00001337     -7416.9443672341 -1.12E-04
   494 OT LS       0.94E-01    4.2                    -7416.9444784268
   495 OT CG       0.94E-01   10.8     0.00001328     -7416.9444784269 -1.11E-04
   496 OT LS       0.94E-01    4.2                    -7416.9445882571
   497 OT CG       0.94E-01   10.9     0.00001318     -7416.9445882573 -1.10E-04
   498 OT LS       0.94E-01    4.2                    -7416.9446962626
   499 OT CG       0.94E-01   10.8     0.00001310     -7416.9446962632 -1.08E-04
   500 OT LS       0.94E-01    4.3                    -7416.9448025301

  Leaving inner SCF loop after reaching   500 steps.


  Electronic density on regular grids:      -3277.9999971174        0.0000028826
  Core density on regular grids:             3277.9999998093       -0.0000001907
  Total charge density on r-space grids:        0.0000026919
  Total charge density g-space grids:           0.0000026919

  Overlap energy of the core charge distribution:               0.00000823441144
  Self energy of the core charge distribution:             -19088.11073027204111
  Core Hamiltonian energy:                                   5414.77914916975897
  Hartree energy:                                            7986.02328852193205
  Exchange-correlation energy:                              -1727.51919392082050
  Dispersion energy:                                           -2.11732426334727

  Total energy:                                             -7416.94480253010624

  outer SCF iter =    1 RMS gradient =   0.13E-04 energy =      -7416.9448025301

  ----------------------------------- OT ---------------------------------------
  Minimizer      : CG                  : conjugate gradient
  Preconditioner : FULL_ALL            : diagonalization, state selective
  Precond_solver : DEFAULT
  Line search    : 2PNT                : 2 energies, one gradient
  stepsize       :    0.15000000                  energy_gap     :    0.00100000
  eps_taylor     :   0.10000E-15                  max_taylor     :             4
  ----------------------------------- OT ---------------------------------------

  Step     Update method      Time    Convergence         Total energy    Change
  ------------------------------------------------------------------------------
     1 OT CG       0.15E+00   47.3     0.00008194     -7416.9448025315 -1.06E-04
     2 OT LS       0.25E+00    3.9                    -7416.9541375313
     3 OT CG       0.25E+00   10.5     0.00000336     -7416.9559052757 -1.11E-02
     4 OT LS       0.72E-01    3.9                    -7416.9558775477
     5 OT CG       0.72E-01   10.5     0.00000111     -7416.9559106415 -5.37E-06
     6 OT LS       0.65E-01    3.9                    -7416.9559111697
     7 OT CG       0.65E-01   10.5     0.00000041     -7416.9559111746 -5.33E-07

  *** SCF run converged in     7 steps ***


  Electronic density on regular grids:      -3277.9999971174        0.0000028826
  Core density on regular grids:             3277.9999998093       -0.0000001907
  Total charge density on r-space grids:        0.0000026919
  Total charge density g-space grids:           0.0000026919

  Overlap energy of the core charge distribution:               0.00000823441144
  Self energy of the core charge distribution:             -19088.11073027204111
  Core Hamiltonian energy:                                   5414.76655814848891
  Hartree energy:                                            7986.02649604017188
  Exchange-correlation energy:                              -1727.52091906223973
  Dispersion energy:                                           -2.11732426334727

  Total energy:                                             -7416.95591117455569

  outer SCF iter =    2 RMS gradient =   0.41E-06 energy =      -7416.9559111746
  outer SCF loop converged in   2 iterations or  507 steps


 ENERGY| Total FORCE_EVAL ( QS ) energy (a.u.):            -7416.955911279826978


 ATOMIC FORCES in [a.u.]

 # Atom   Kind   Element          X              Y              Z
      1      1      Ti          0.00000000     0.00000000     0.00000000
      2      2      Si          0.00000000     0.00000000     0.00000000
      3      2      Si          0.00000000     0.00000000     0.00000000
      4      2      Si          0.00000000     0.00000000     0.00000000
      5      2      Si          0.00000000     0.00000000     0.00000000
      6      2      Si          0.00000000     0.00000000     0.00000000
      7      2      Si          0.00000000     0.00000000     0.00000000
      8      2      Si          0.00000000     0.00000000     0.00000000
      9      2      Si          0.00000000     0.00000000     0.00000000
     10      2      Si          0.00000000     0.00000000     0.00000000
     11      2      Si          0.00000000     0.00000000     0.00000000
     12      2      Si          0.00000000     0.00000000     0.00000000
     13      2      Si          0.00000000     0.00000000     0.00000000
     14      2      Si          0.00000000     0.00000000     0.00000000
     15      2      Si          0.00000000     0.00000000     0.00000000
     16      2      Si          0.00000000     0.00000000     0.00000000
     17      2      Si          0.00000000     0.00000000     0.00000000
     18      2      Si          0.00000000     0.00000000     0.00000000
     19      2      Si          0.00000000     0.00000000     0.00000000
     20      2      Si          0.00000000     0.00000000     0.00000000
     21      2      Si          0.00000000     0.00000000     0.00000000
     22      2      Si          0.00000000     0.00000000     0.00000000
     23      2      Si          0.00000000     0.00000000     0.00000000
     24      2      Si          0.00000000     0.00000000     0.00000000
     25      2      Si          0.00000000     0.00000000     0.00000000
     26      2      Si          0.00000000     0.00000000     0.00000000
     27      2      Si          0.00000000     0.00000000     0.00000000
     28      2      Si          0.00000000     0.00000000     0.00000000
     29      2      Si          0.00000000     0.00000000     0.00000000
     30      2      Si          0.00000000     0.00000000     0.00000000
     31      2      Si          0.00000000     0.00000000     0.00000000
     32      2      Si          0.00000000     0.00000000     0.00000000
     33      2      Si          0.00000000     0.00000000     0.00000000
     34      2      Si          0.00000000     0.00000000     0.00000000
     35      2      Si          0.00000000     0.00000000     0.00000000
     36      2      Si          0.00000000     0.00000000     0.00000000
     37      2      Si          0.00000000     0.00000000     0.00000000
     38      2      Si          0.00000000     0.00000000     0.00000000
     39      2      Si          0.00000000     0.00000000     0.00000000
     40      2      Si          0.00000000     0.00000000     0.00000000
     41      2      Si          0.00000000     0.00000000     0.00000000
     42      2      Si          0.00000000     0.00000000     0.00000000
     43      2      Si          0.00000000     0.00000000     0.00000000
     44      2      Si          0.00000000     0.00000000     0.00000000
     45      2      Si          0.00000000     0.00000000     0.00000000
     46      2      Si          0.00000000     0.00000000     0.00000000
     47      2      Si          0.00000000     0.00000000     0.00000000
     48      2      Si          0.00000000     0.00000000     0.00000000
     49      2      Si          0.00000000     0.00000000     0.00000000
     50      2      Si          0.00000000     0.00000000     0.00000000
     51      2      Si          0.00000000     0.00000000     0.00000000
     52      2      Si          0.00000000     0.00000000     0.00000000
     53      2      Si          0.00000000     0.00000000     0.00000000
     54      2      Si          0.00000000     0.00000000     0.00000000
     55      2      Si          0.00000000     0.00000000     0.00000000
     56      2      Si          0.00000000     0.00000000     0.00000000
     57      2      Si          0.00000000     0.00000000     0.00000000
     58      2      Si          0.00000000     0.00000000     0.00000000
     59      2      Si          0.00000000     0.00000000     0.00000000
     60      2      Si          0.00000000     0.00000000     0.00000000
     61      2      Si          0.00000000     0.00000000     0.00000000
     62      2      Si          0.00000000     0.00000000     0.00000000
     63      2      Si          0.00000000     0.00000000     0.00000000
     64      2      Si          0.00000000     0.00000000     0.00000000
     65      2      Si          0.00000000     0.00000000     0.00000000
     66      2      Si          0.00000000     0.00000000     0.00000000
     67      2      Si          0.00000000     0.00000000     0.00000000
     68      2      Si          0.00000000     0.00000000     0.00000000
     69      2      Si          0.00000000     0.00000000     0.00000000
     70      2      Si          0.00000000     0.00000000     0.00000000
     71      2      Si          0.00000000     0.00000000     0.00000000
     72      2      Si          0.00000000     0.00000000     0.00000000
     73      2      Si          0.00000000     0.00000000     0.00000000
     74      2      Si          0.00000000     0.00000000     0.00000000
     75      2      Si          0.00000000     0.00000000     0.00000000
     76      2      Si          0.00000000     0.00000000     0.00000000
     77      2      Si          0.00000000     0.00000000     0.00000000
     78      2      Si          0.00000000     0.00000000     0.00000000
     79      2      Si          0.00000000     0.00000000     0.00000000
     80      2      Si          0.00000000     0.00000000     0.00000000
     81      2      Si          0.00000000     0.00000000     0.00000000
     82      2      Si          0.00000000     0.00000000     0.00000000
     83      2      Si          0.00000000     0.00000000     0.00000000
     84      2      Si          0.00000000     0.00000000     0.00000000
     85      2      Si          0.00000000     0.00000000     0.00000000
     86      2      Si          0.00000000     0.00000000     0.00000000
     87      2      Si          0.00000000     0.00000000     0.00000000
     88      2      Si          0.00000000     0.00000000     0.00000000
     89      2      Si          0.00000000     0.00000000     0.00000000
     90      2      Si          0.00000000     0.00000000     0.00000000
     91      2      Si          0.00000000     0.00000000     0.00000000
     92      2      Si          0.00000000     0.00000000     0.00000000
     93      2      Si          0.00000000     0.00000000     0.00000000
     94      2      Si          0.00000000     0.00000000     0.00000000
     95      2      Si          0.00000000     0.00000000     0.00000000
     96      2      Si          0.00000000     0.00000000     0.00000000
     97      2      Si          0.00000000     0.00000000     0.00000000
     98      2      Si          0.00000000     0.00000000     0.00000000
     99      2      Si          0.00000000     0.00000000     0.00000000
    100      2      Si          0.00000000     0.00000000     0.00000000
    101      2      Si          0.00000000     0.00000000     0.00000000
    102      2      Si          0.00000000     0.00000000     0.00000000
    103      2      Si          0.00000000     0.00000000     0.00000000
    104      2      Si          0.00000000     0.00000000     0.00000000
    105      2      Si          0.00000000     0.00000000     0.00000000
    106      2      Si          0.00000000     0.00000000     0.00000000
    107      2      Si          0.00000000     0.00000000     0.00000000
    108      2      Si          0.00000000     0.00000000     0.00000000
    109      2      Si          0.00000000     0.00000000     0.00000000
    110      2      Si          0.00000000     0.00000000     0.00000000
    111      2      Si          0.00000000     0.00000000     0.00000000
    112      2      Si          0.00000000     0.00000000     0.00000000
    113      2      Si          0.00000000     0.00000000     0.00000000
    114      2      Si          0.00000000     0.00000000     0.00000000
    115      2      Si          0.00000000     0.00000000     0.00000000
    116      2      Si          0.00000000     0.00000000     0.00000000
    117      2      Si          0.00000000     0.00000000     0.00000000
    118      2      Si          0.00000000     0.00000000     0.00000000
    119      2      Si          0.00000000     0.00000000     0.00000000
    120      2      Si          0.00000000     0.00000000     0.00000000
    121      2      Si          0.00000000     0.00000000     0.00000000
    122      2      Si          0.00000000     0.00000000     0.00000000
    123      2      Si          0.00000000     0.00000000     0.00000000
    124      2      Si          0.00000000     0.00000000     0.00000000
    125      2      Si          0.00000000     0.00000000     0.00000000
    126      2      Si          0.00000000     0.00000000     0.00000000
    127      2      Si          0.00000000     0.00000000     0.00000000
    128      2      Si          0.00000000     0.00000000     0.00000000
    129      2      Si          0.00000000     0.00000000     0.00000000
    130      2      Si          0.00000000     0.00000000     0.00000000
    131      2      Si          0.00000000     0.00000000     0.00000000
    132      2      Si          0.00000000     0.00000000     0.00000000
    133      2      Si          0.00000000     0.00000000     0.00000000
    134      2      Si          0.00000000     0.00000000     0.00000000
    135      2      Si          0.00000000     0.00000000     0.00000000
    136      2      Si          0.00000000     0.00000000     0.00000000
    137      2      Si          0.00000000     0.00000000     0.00000000
    138      2      Si          0.00000000     0.00000000     0.00000000
    139      2      Si          0.00000000     0.00000000     0.00000000
    140      2      Si          0.00000000     0.00000000     0.00000000
    141      2      Si          0.00000000     0.00000000     0.00000000
    142      2      Si          0.00000000     0.00000000     0.00000000
    143      2      Si          0.00000000     0.00000000     0.00000000
    144      2      Si          0.00000000     0.00000000     0.00000000
    145      2      Si          0.00000000     0.00000000     0.00000000
    146      2      Si          0.00000000     0.00000000     0.00000000
    147      2      Si          0.00000000     0.00000000     0.00000000
    148      2      Si          0.00000000     0.00000000     0.00000000
    149      2      Si          0.00000000     0.00000000     0.00000000
    150      2      Si          0.00000000     0.00000000     0.00000000
    151      2      Si          0.00000000     0.00000000     0.00000000
    152      2      Si          0.00000000     0.00000000     0.00000000
    153      2      Si          0.00000000     0.00000000     0.00000000
    154      2      Si          0.00000000     0.00000000     0.00000000
    155      2      Si          0.00000000     0.00000000     0.00000000
    156      2      Si          0.00000000     0.00000000     0.00000000
    157      2      Si          0.00000000     0.00000000     0.00000000
    158      2      Si          0.00000000     0.00000000     0.00000000
    159      2      Si          0.00000000     0.00000000     0.00000000
    160      2      Si          0.00000000     0.00000000     0.00000000
    161      2      Si          0.00000000     0.00000000     0.00000000
    162      2      Si          0.00000000     0.00000000     0.00000000
    163      2      Si          0.00000000     0.00000000     0.00000000
    164      2      Si          0.00000000     0.00000000     0.00000000
    165      2      Si          0.00000000     0.00000000     0.00000000
    166      2      Si          0.00000000     0.00000000     0.00000000
    167      2      Si          0.00000000     0.00000000     0.00000000
    168      2      Si          0.00000000     0.00000000     0.00000000
    169      2      Si          0.00000000     0.00000000     0.00000000
    170      2      Si          0.00000000     0.00000000     0.00000000
    171      2      Si          0.00000000     0.00000000     0.00000000
    172      2      Si          0.00000000     0.00000000     0.00000000
    173      2      Si          0.00000000     0.00000000     0.00000000
    174      2      Si          0.00000000     0.00000000     0.00000000
    175      2      Si          0.00000000     0.00000000     0.00000000
    176      2      Si          0.00000000     0.00000000     0.00000000
    177      2      Si          0.00000000     0.00000000     0.00000000
    178      2      Si          0.00000000     0.00000000     0.00000000
    179      2      Si          0.00000000     0.00000000     0.00000000
    180      2      Si          0.00000000     0.00000000     0.00000000
    181      2      Si          0.00000000     0.00000000     0.00000000
    182      2      Si          0.00000000     0.00000000     0.00000000
    183      2      Si          0.00000000     0.00000000     0.00000000
    184      2      Si          0.00000000     0.00000000     0.00000000
    185      2      Si          0.00000000     0.00000000     0.00000000
    186      2      Si          0.00000000     0.00000000     0.00000000
    187      2      Si          0.00000000     0.00000000     0.00000000
    188      2      Si          0.00000000     0.00000000     0.00000000
    189      2      Si          0.00000000     0.00000000     0.00000000
    190      2      Si          0.00000000     0.00000000     0.00000000
    191      2      Si          0.00000000     0.00000000     0.00000000
    192      3      O           0.00000000     0.00000000     0.00000000
    193      3      O           0.00000000     0.00000000     0.00000000
    194      3      O           0.00000000     0.00000000     0.00000000
    195      3      O           0.00000000     0.00000000     0.00000000
    196      3      O           0.00000000     0.00000000     0.00000000
    197      3      O           0.00000000     0.00000000     0.00000000
    198      3      O           0.00000000     0.00000000     0.00000000
    199      3      O           0.00000000     0.00000000     0.00000000
    200      3      O           0.00000000     0.00000000     0.00000000
    201      3      O           0.00000000     0.00000000     0.00000000
    202      3      O           0.00000000     0.00000000     0.00000000
    203      3      O           0.00000000     0.00000000     0.00000000
    204      3      O           0.00000000     0.00000000     0.00000000
    205      3      O           0.00000000     0.00000000     0.00000000
    206      3      O           0.00000000     0.00000000     0.00000000
    207      3      O           0.00000000     0.00000000     0.00000000
    208      3      O           0.00000000     0.00000000     0.00000000
    209      3      O           0.00000000     0.00000000     0.00000000
    210      3      O           0.00000000     0.00000000     0.00000000
    211      3      O           0.00000000     0.00000000     0.00000000
    212      3      O           0.00000000     0.00000000     0.00000000
    213      3      O           0.00000000     0.00000000     0.00000000
    214      3      O           0.00000000     0.00000000     0.00000000
    215      3      O           0.00000000     0.00000000     0.00000000
    216      3      O           0.00000000     0.00000000     0.00000000
    217      3      O           0.00000000     0.00000000     0.00000000
    218      3      O           0.00000000     0.00000000     0.00000000
    219      3      O           0.00000000     0.00000000     0.00000000
    220      3      O           0.00000000     0.00000000     0.00000000
    221      3      O           0.00000000     0.00000000     0.00000000
    222      3      O           0.00000000     0.00000000     0.00000000
    223      3      O           0.00000000     0.00000000     0.00000000
    224      3      O           0.00000000     0.00000000     0.00000000
    225      3      O           0.00000000     0.00000000     0.00000000
    226      3      O           0.00000000     0.00000000     0.00000000
    227      3      O           0.00000000     0.00000000     0.00000000
    228      3      O           0.00000000     0.00000000     0.00000000
    229      3      O           0.00000000     0.00000000     0.00000000
    230      3      O           0.00000000     0.00000000     0.00000000
    231      3      O           0.00000000     0.00000000     0.00000000
    232      3      O           0.00000000     0.00000000     0.00000000
    233      3      O           0.00000000     0.00000000     0.00000000
    234      3      O           0.00000000     0.00000000     0.00000000
    235      3      O           0.00000000     0.00000000     0.00000000
    236      3      O           0.00000000     0.00000000     0.00000000
    237      3      O           0.00000000     0.00000000     0.00000000
    238      3      O           0.00000000     0.00000000     0.00000000
    239      3      O           0.00000000     0.00000000     0.00000000
    240      3      O           0.00000000     0.00000000     0.00000000
    241      3      O           0.00000000     0.00000000     0.00000000
    242      3      O           0.00000000     0.00000000     0.00000000
    243      3      O           0.00000000     0.00000000     0.00000000
    244      3      O           0.00000000     0.00000000     0.00000000
    245      3      O           0.00000000     0.00000000     0.00000000
    246      3      O           0.00000000     0.00000000     0.00000000
    247      3      O           0.00000000     0.00000000     0.00000000
    248      3      O           0.00000000     0.00000000     0.00000000
    249      3      O           0.00000000     0.00000000     0.00000000
    250      3      O           0.00000000     0.00000000     0.00000000
    251      3      O           0.00000000     0.00000000     0.00000000
    252      3      O           0.00000000     0.00000000     0.00000000
    253      3      O           0.00000000     0.00000000     0.00000000
    254      3      O           0.00000000     0.00000000     0.00000000
    255      3      O           0.00000000     0.00000000     0.00000000
    256      3      O           0.00000000     0.00000000     0.00000000
    257      3      O           0.00000000     0.00000000     0.00000000
    258      3      O           0.00000000     0.00000000     0.00000000
    259      3      O           0.00000000     0.00000000     0.00000000
    260      3      O           0.00000000     0.00000000     0.00000000
    261      3      O           0.00000000     0.00000000     0.00000000
    262      3      O           0.00000000     0.00000000     0.00000000
    263      3      O           0.00000000     0.00000000     0.00000000
    264      3      O           0.00000000     0.00000000     0.00000000
    265      3      O           0.00000000     0.00000000     0.00000000
    266      3      O           0.00000000     0.00000000     0.00000000
    267      3      O           0.00000000     0.00000000     0.00000000
    268      3      O           0.00000000     0.00000000     0.00000000
    269      3      O           0.00000000     0.00000000     0.00000000
    270      3      O           0.00000000     0.00000000     0.00000000
    271      3      O           0.00000000     0.00000000     0.00000000
    272      3      O           0.00000000     0.00000000     0.00000000
    273      3      O           0.00000000     0.00000000     0.00000000
    274      3      O           0.00000000     0.00000000     0.00000000
    275      3      O           0.00000000     0.00000000     0.00000000
    276      3      O           0.00000000     0.00000000     0.00000000
    277      3      O           0.00000000     0.00000000     0.00000000
    278      3      O           0.00000000     0.00000000     0.00000000
    279      3      O           0.00000000     0.00000000     0.00000000
    280      3      O           0.00000000     0.00000000     0.00000000
    281      3      O           0.00000000     0.00000000     0.00000000
    282      3      O           0.00000000     0.00000000     0.00000000
    283      3      O           0.00000000     0.00000000     0.00000000
    284      3      O           0.00000000     0.00000000     0.00000000
    285      3      O           0.00000000     0.00000000     0.00000000
    286      3      O           0.00000000     0.00000000     0.00000000
    287      3      O           0.00000000     0.00000000     0.00000000
    288      3      O           0.00000000     0.00000000     0.00000000
    289      3      O           0.00000000     0.00000000     0.00000000
    290      3      O           0.00000000     0.00000000     0.00000000
    291      3      O           0.00000000     0.00000000     0.00000000
    292      3      O           0.00000000     0.00000000     0.00000000
    293      3      O           0.00000000     0.00000000     0.00000000
    294      3      O           0.00000000     0.00000000     0.00000000
    295      3      O           0.00000000     0.00000000     0.00000000
    296      3      O           0.00000000     0.00000000     0.00000000
    297      3      O           0.00000000     0.00000000     0.00000000
    298      3      O           0.00000000     0.00000000     0.00000000
    299      3      O           0.00000000     0.00000000     0.00000000
    300      3      O           0.00000000     0.00000000     0.00000000
    301      3      O           0.00000000     0.00000000     0.00000000
    302      3      O           0.00000000     0.00000000     0.00000000
    303      3      O           0.00000000     0.00000000     0.00000000
    304      3      O           0.00000000     0.00000000     0.00000000
    305      3      O           0.00000000     0.00000000     0.00000000
    306      3      O           0.00000000     0.00000000     0.00000000
    307      3      O           0.00000000     0.00000000     0.00000000
    308      3      O           0.00000000     0.00000000     0.00000000
    309      3      O           0.00000000     0.00000000     0.00000000
    310      3      O           0.00000000     0.00000000     0.00000000
    311      3      O           0.00000000     0.00000000     0.00000000
    312      3      O           0.00000000     0.00000000     0.00000000
    313      3      O           0.00000000     0.00000000     0.00000000
    314      3      O           0.00000000     0.00000000     0.00000000
    315      3      O           0.00000000     0.00000000     0.00000000
    316      3      O           0.00000000     0.00000000     0.00000000
    317      3      O           0.00000000     0.00000000     0.00000000
    318      3      O           0.00000000     0.00000000     0.00000000
    319      3      O           0.00000000     0.00000000     0.00000000
    320      3      O           0.00000000     0.00000000     0.00000000
    321      3      O           0.00000000     0.00000000     0.00000000
    322      3      O           0.00000000     0.00000000     0.00000000
    323      3      O           0.00000000     0.00000000     0.00000000
    324      3      O           0.00000000     0.00000000     0.00000000
    325      3      O           0.00000000     0.00000000     0.00000000
    326      3      O           0.00000000     0.00000000     0.00000000
    327      3      O           0.00000000     0.00000000     0.00000000
    328      3      O           0.00000000     0.00000000     0.00000000
    329      3      O           0.00000000     0.00000000     0.00000000
    330      3      O           0.00000000     0.00000000     0.00000000
    331      3      O           0.00000000     0.00000000     0.00000000
    332      3      O           0.00000000     0.00000000     0.00000000
    333      3      O           0.00000000     0.00000000     0.00000000
    334      3      O           0.00000000     0.00000000     0.00000000
    335      3      O           0.00000000     0.00000000     0.00000000
    336      3      O           0.00000000     0.00000000     0.00000000
    337      3      O           0.00000000     0.00000000     0.00000000
    338      3      O           0.00000000     0.00000000     0.00000000
    339      3      O           0.00000000     0.00000000     0.00000000
    340      3      O           0.00000000     0.00000000     0.00000000
    341      3      O           0.00000000     0.00000000     0.00000000
    342      3      O           0.00000000     0.00000000     0.00000000
    343      3      O           0.00000000     0.00000000     0.00000000
    344      3      O           0.00000000     0.00000000     0.00000000
    345      3      O           0.00000000     0.00000000     0.00000000
    346      3      O           0.00000000     0.00000000     0.00000000
    347      3      O           0.00000000     0.00000000     0.00000000
    348      3      O           0.00000000     0.00000000     0.00000000
    349      3      O           0.00000000     0.00000000     0.00000000
    350      3      O           0.00000000     0.00000000     0.00000000
    351      3      O           0.00000000     0.00000000     0.00000000
    352      3      O           0.00000000     0.00000000     0.00000000
    353      3      O           0.00000000     0.00000000     0.00000000
    354      3      O           0.00000000     0.00000000     0.00000000
    355      3      O           0.00000000     0.00000000     0.00000000
    356      3      O           0.00000000     0.00000000     0.00000000
    357      3      O           0.00000000     0.00000000     0.00000000
    358      3      O           0.00000000     0.00000000     0.00000000
    359      3      O           0.00000000     0.00000000     0.00000000
    360      3      O           0.00000000     0.00000000     0.00000000
    361      3      O           0.00000000     0.00000000     0.00000000
    362      3      O           0.00000000     0.00000000     0.00000000
    363      3      O           0.00000000     0.00000000     0.00000000
    364      3      O           0.00000000     0.00000000     0.00000000
    365      3      O           0.00000000     0.00000000     0.00000000
    366      3      O           0.00000000     0.00000000     0.00000000
    367      3      O           0.00000000     0.00000000     0.00000000
    368      3      O           0.00000000     0.00000000     0.00000000
    369      3      O           0.00000000     0.00000000     0.00000000
    370      3      O           0.00000000     0.00000000     0.00000000
    371      3      O           0.00000000     0.00000000     0.00000000
    372      3      O           0.00000000     0.00000000     0.00000000
    373      3      O           0.00000000     0.00000000     0.00000000
    374      3      O           0.00000000     0.00000000     0.00000000
    375      3      O           0.00000000     0.00000000     0.00000000
    376      3      O           0.00000000     0.00000000     0.00000000
    377      3      O           0.00000000     0.00000000     0.00000000
    378      3      O           0.00000000     0.00000000     0.00000000
    379      3      O           0.00000000     0.00000000     0.00000000
    380      3      O           0.00000000     0.00000000     0.00000000
    381      3      O           0.00000000     0.00000000     0.00000000
    382      3      O           0.00000000     0.00000000     0.00000000
    383      3      O           0.00000000     0.00000000     0.00000000
    384      3      O           0.00000000     0.00000000     0.00000000
    385      3      O           0.00000000     0.00000000     0.00000000
[...]
 flops   391 x   263 x   670         583153603040       0.0%    100.0%      0.0%
 flops   391 x   256 x   160         632862965760       0.0%    100.0%      0.0%
 flops    26 x    32 x    13         691470514176       0.0%    100.0%      0.0%
 flops    13 x    32 x    26         691470514176       0.0%    100.0%      0.0%
 flops   391 x   263 x   128         693512333312       0.0%    100.0%      0.0%
 flops  2023 x   256 x   135         796749972480       0.0%    100.0%      0.0%
 flops   391 x   263 x   662         864285862416       0.0%    100.0%      0.0%
 flops     5 x    13 x   128         870083368960       0.0%    100.0%      0.0%
 flops    13 x     5 x   128         879630868480       0.0%    100.0%      0.0%
 flops   416 x   288 x   135         958702417920       0.0%    100.0%      0.0%
 flops   416 x   263 x   160        1037607966720       0.0%    100.0%      0.0%
 flops   391 x   288 x   160        1067956254720       0.0%    100.0%      0.0%
 flops   391 x   256 x   670        1135264808960       0.0%    100.0%      0.0%
 flops   391 x   263 x   675        1175010991200       0.0%    100.0%      0.0%
 flops  2020 x   263 x   135        1225983389400       0.0%    100.0%      0.0%
 flops  2023 x   288 x   135        1344515578560       0.0%    100.0%      0.0%
 flops   391 x   256 x   128        1350107660288       0.0%    100.0%      0.0%
 flops  2023 x   263 x   670        1368855667200       0.0%    100.0%      0.0%
 flops  2023 x   263 x   160        1455175296960       0.0%    100.0%      0.0%
 flops   391 x   256 x   662        1682564112384       0.0%    100.0%      0.0%
 flops   416 x   263 x   670        1861318917120       0.0%    100.0%      0.0%
 flops   391 x   288 x   670        1915759365120       0.0%    100.0%      0.0%
 flops   416 x   256 x   160        2019982049280       0.0%    100.0%      0.0%
 flops  2023 x   263 x   662        2028766682880       0.0%    100.0%      0.0%
 flops   416 x   263 x   128        2213563662336       0.0%    100.0%      0.0%
 flops   391 x   288 x   128        2278306676736       0.0%    100.0%      0.0%
 flops   391 x   256 x   675        2287473868800       0.0%    100.0%      0.0%
 flops    13 x    13 x   135        2340999968580       0.0%    100.0%      0.0%
 flops  2020 x   256 x   135        2386705305600       0.0%    100.0%      0.0%
 flops  2023 x   256 x   670        2664844492800       0.0%    100.0%      0.0%
 flops  2023 x   263 x   675        2758142016000       0.0%    100.0%      0.0%
 flops   416 x   263 x   662        2758641320448       0.0%    100.0%      0.0%
 flops  2023 x   256 x   160        2832888791040       0.0%    100.0%      0.0%
 flops   391 x   288 x   662        2839326939648       0.0%    100.0%      0.0%
 flops  2023 x   263 x   128        3104373966848       0.0%    100.0%      0.0%
 flops   416 x   288 x   160        3408719708160       0.0%    100.0%      0.0%
 flops   416 x   256 x   670        3623556218880       0.0%    100.0%      0.0%
 flops   416 x   263 x   675        3750418713600       0.0%    100.0%      0.0%
 flops   391 x   288 x   675        3860112153600       0.0%    100.0%      0.0%
 flops  2023 x   256 x   662        3949538181120       0.0%    100.0%      0.0%
 flops  2020 x   288 x   135        4027565203200       0.0%    100.0%      0.0%
 flops  2020 x   263 x   670        4100477184000       0.0%    100.0%      0.0%
 flops   416 x   256 x   128        4309295038464       0.0%    100.0%      0.0%
 flops  2020 x   263 x   160        4359052051200       0.0%    100.0%      0.0%
 flops  2023 x   288 x   670        4496925081600       0.0%    100.0%      0.0%
 flops  2023 x   288 x   160        4780499834880       0.0%    100.0%      0.0%
 flops  2023 x   256 x   675        5369462784000       0.0%    100.0%      0.0%
 flops   416 x   256 x   662        5370434813952       0.0%    100.0%      0.0%
 flops    13 x    32 x     5        5639509611840       0.0%    100.0%      0.0%
 flops     5 x    32 x    13        5639509611840       0.0%    100.0%      0.0%
 flops  2023 x   256 x   128        6043496087552       0.0%    100.0%      0.0%
 flops  2020 x   263 x   662        6077274393600       0.0%    100.0%      0.0%
 flops   416 x   288 x   670        6114751119360       0.0%    100.0%      0.0%
 flops  2023 x   288 x   662        6664845680640       0.0%    100.0%      0.0%
 flops   416 x   288 x   128        7271935377408       0.0%    100.0%      0.0%
 flops   416 x   256 x   675        7301195366400       0.0%    100.0%      0.0%
 flops  2020 x   256 x   670        7982678016000       0.0%    100.0%      0.0%
 flops  2020 x   263 x   675        8262155520000       0.0%    100.0%      0.0%
 flops    13 x    13 x   160        8323555443840       0.0%    100.0%      0.0%
 flops  2020 x   256 x   160        8486063308800       0.0%    100.0%      0.0%
 flops  2023 x   288 x   675        9060968448000       0.0%    100.0%      0.0%
 flops   416 x   288 x   662        9062608748544       0.0%    100.0%      0.0%
 flops  2020 x   263 x   128        9299311042560       0.0%    100.0%      0.0%
 flops  2023 x   288 x   128       10198399647744       0.0%    100.0%      0.0%
 flops  2020 x   256 x   662       11831043686400       0.0%    100.0%      0.0%
 flops   416 x   288 x   675       12320767180800       0.0%    100.0%      0.0%
 flops  2020 x   288 x   670       13470769152000       0.0%    100.0%      0.0%
 flops  2020 x   288 x   160       14320231833600       0.0%    100.0%      0.0%
 flops  2020 x   256 x   675       16084500480000       0.0%    100.0%      0.0%
 flops    13 x    13 x   128       17756918280192       0.0%    100.0%      0.0%
 flops  2020 x   256 x   128       18103601725440       0.0%    100.0%      0.0%
 flops  2020 x   288 x   662       19964886220800       0.0%    100.0%      0.0%
 flops  2020 x   288 x   675       27142594560000       0.0%    100.0%      0.0%
 flops  2020 x   288 x   128       30549827911680       0.0%    100.0%      0.0%
 flops    13 x    32 x    13      113854786845696       0.0%    100.0%      0.0%
 flops inhomo. stacks              76848300277056     100.0%      0.0%      0.0%
 flops total                       610.673008E+12      12.6%     87.4%      0.0%
 flops max/rank                     26.948573E+12      12.6%     87.4%      0.0%
 matmuls inhomo. stacks                    221472     100.0%      0.0%      0.0%
 matmuls total                        14641896164       0.0%    100.0%      0.0%
 number of processed stacks              20097537       1.1%     98.9%      0.0%
 average stack size                                     1.0     736.6       0.0
 marketing flops                     1.038364E+15
 -------------------------------------------------------------------------------
 # multiplications                          12055
 max memory usage/rank             889.966592E+06
 # max total images/rank                        3
 # max 3D layers                                1
 # MPI messages exchanged                 5497080
 MPI messages size (bytes):
  total size                         9.795837E+12
  min size                           0.000000E+00
  max size                          11.264064E+06
  average size                       1.782007E+06
 MPI breakdown and total messages size (bytes):
             size <=      128               36252                        0
       128 < size <=     8192                   0                        0
      8192 < size <=    32768                1368                 44826624
     32768 < size <=   131072                 684                 26682840
    131072 < size <=  4194304             5228376            7289094885800
   4194304 < size <= 16777216              230400            2508859737600
  16777216 < size                               0                        0
 -------------------------------------------------------------------------------

 *** WARNING in dbcsr_mm.F:295 :: Using a non-square number of MPI ranks ***
 *** might lead to poor performance. Used ranks: 24 Suggested: 25 49     ***

 -------------------------------------------------------------------------------
 -                                                                             -
 -                      DBCSR MESSAGE PASSING PERFORMANCE                      -
 -                                                                             -
 -------------------------------------------------------------------------------
 ROUTINE             CALLS      AVE VOLUME [Bytes]
 MP_Group             1532
 MP_Bcast              124                     12.
 MP_Allreduce        60722                    116.
 MP_Alltoall         55999                 819993.
 MP_Wait            675080
 MP_ISend           554896                 804325.
 MP_IRecv           546134                 809991.
 MP_Memory         1112122
 -------------------------------------------------------------------------------

 MEMORY| Estimated peak process memory [MiB]                                 849

 -------------------------------------------------------------------------------
 -                                                                             -
 -                         MESSAGE PASSING PERFORMANCE                         -
 -                                                                             -
 -------------------------------------------------------------------------------

 ROUTINE             CALLS      AVE VOLUME [Bytes]
 MP_Group                5
 MP_Bcast            35236                 240072.
 MP_Allreduce        94612                   1266.
 MP_Sync                 5
 MP_Alltoall         14778               33573782.
 MP_SendRecv          5060                  16178.
 MP_ISendRecv        91356                 127093.
 MP_Wait            180857
 MP_ISend            79900                 807014.
 MP_IRecv            79900                 807175.
 MP_Recv              7155                1371500.
 -------------------------------------------------------------------------------


 -------------------------------------------------------------------------------
 -                                                                             -
 -                           R E F E R E N C E S                               -
 -                                                                             -
 -------------------------------------------------------------------------------
 
 CP2K version 7.1, the CP2K developers group (2019).
 CP2K is freely available from https://www.cp2k.org/ .

 Schuett, Ole; Messmer, Peter; Hutter, Juerg; VandeVondele, Joost. 
 Electronic Structure Calculations on Graphics Processing Units, John
 Wiley & Sons, Ltd, 173-190 (2016). 
 GPU-Accelerated Sparse Matrix-Matrix Multiplication for
 Linear Scaling Density Functional Theory.
 https://dx.doi.org/10.1002/9781118670712.ch8

 Borstnik, U; VandeVondele, J; Weber, V; Hutter, J. 
 PARALLEL COMPUTING, 40 (5-6), 47-58 (2014). 
 Sparse matrix multiplication: The distributed block-compressed sparse
 row library.
 https://dx.doi.org/10.1016/j.parco.2014.03.012

 Hutter, J; Iannuzzi, M; Schiffmann, F; VandeVondele, J. 
 WIREs Comput Mol Sci., 4 (1), 15-25 (2014). 
 CP2K: atomistic simulations of condensed matter systems.
 https://dx.doi.org/10.1002/wcms.1159

 Grimme, S; Ehrlich, S; Goerigk, L. 
 JOURNAL OF COMPUTATIONAL CHEMISTRY, 32, 1456 (2011). 
 Effect of the damping function in dispersion corrected density functional theory.
 https://dx.doi.org/10.1002/jcc.21759

 Grimme, S; Antony, J; Ehrlich, S; Krieg, H. 
 JOURNAL OF CHEMICAL PHYSICS, 132 (15), 154104 (2010). 
 A consistent and accurate ab initio parametrization of density
 functional dispersion correction (DFT-D) for the 94 elements H-Pu.
 https://dx.doi.org/10.1063/1.3382344

 VandeVondele, J; Hutter, J. 
 JOURNAL OF CHEMICAL PHYSICS, 127 (11), 114105 (2007). 
 Gaussian basis sets for accurate calculations on molecular systems in
 gas and condensed phases.
 https://dx.doi.org/10.1063/1.2770708

 Krack, M. 
 THEORETICAL CHEMISTRY ACCOUNTS, 114 (1-3), 145-152 (2005). 
 Pseudopotentials for H to Kr optimized for gradient-corrected
 exchange-correlation functionals.
 https://dx.doi.org/10.1007/s00214-005-0655-y

 VandeVondele, J; Krack, M; Mohamed, F; Parrinello, M; Chassaing, T;
 Hutter, J. COMPUTER PHYSICS COMMUNICATIONS, 167 (2), 103-128 (2005). 
 QUICKSTEP: Fast and accurate density functional calculations using a
 mixed Gaussian and plane waves approach.
 https://dx.doi.org/10.1016/j.cpc.2004.12.014

 Frigo, M; Johnson, SG. 
 PROCEEDINGS OF THE IEEE, 93 (2), 216-231 (2005). 
 The design and implementation of FFTW3.
 https://dx.doi.org/10.1109/JPROC.2004.840301

 Kolafa, J. 
 JOURNAL OF COMPUTATIONAL CHEMISTRY, 25 (3), 335-342 (2004). 
 Time-reversible always stable predictor-corrector method for molecular dynamics of polarizable molecules.
 https://dx.doi.org/10.1002/jcc.10385

 VandeVondele, J; Hutter, J. 
 JOURNAL OF CHEMICAL PHYSICS, 118 (10), 4365-4369 (2003). 
 An efficient orbital transformation method for electronic structure
 calculations.
 https://dx.doi.org/10.1063/1.1543154

 Hartwigsen, C; Goedecker, S; Hutter, J. 
 PHYSICAL REVIEW B, 58 (7), 3641-3662 (1998). 
 Relativistic separable dual-space Gaussian pseudopotentials from H to Rn.
 https://dx.doi.org/10.1103/PhysRevB.58.3641

 Lippert, G; Hutter, J; Parrinello, M. 
 MOLECULAR PHYSICS, 92 (3), 477-487 (1997). 
 A hybrid Gaussian and plane wave density functional scheme.
 https://dx.doi.org/10.1080/002689797170220

 Perdew, JP; Burke, K; Ernzerhof, M. 
 PHYSICAL REVIEW LETTERS, 77 (18), 3865-3868 (1996). 
 Generalized gradient approximation made simple.
 https://dx.doi.org/10.1103/PhysRevLett.77.3865

 Goedecker, S; Teter, M; Hutter, J. 
 PHYSICAL REVIEW B, 54 (3), 1703-1710 (1996). 
 Separable dual-space Gaussian pseudopotentials.
 https://dx.doi.org/10.1103/PhysRevB.54.1703


 -------------------------------------------------------------------------------
 -                                                                             -
 -                                T I M I N G                                  -
 -                                                                             -
 -------------------------------------------------------------------------------
 SUBROUTINE                       CALLS  ASD         SELF TIME        TOTAL TIME
                                MAXIMUM       AVERAGE  MAXIMUM  AVERAGE  MAXIMUM
 CP2K                                 1  1.0    0.015    0.017 8831.535 8831.547
 cp_geo_opt                           1  2.0    0.000    0.000 8830.250 8830.262
 geoopt_bfgs                          1  3.0    0.251    0.286 8830.250 8830.262
 cp_eval_at                          56  4.0    0.013    0.126 8794.609 8794.668
 qs_forces                           55  5.0    0.017    0.019 8733.438 8733.450
 qs_energies                         56  6.0    0.005    0.006 8272.821 8273.138
 scf_env_do_scf                      56  7.0    0.003    0.005 7901.676 7901.754
 scf_env_do_scf_inner_loop          790  8.0    0.030    0.069 5923.409 5932.471
 rebuild_ks_matrix                  845  9.8    0.004    0.005 3056.069 3060.796
 qs_ks_build_kohn_sham_matrix       845 10.8    0.108    0.120 3056.065 3060.793
 qs_ks_update_qs_env                847  9.0    0.006    0.007 2661.280 2665.451
 dbcsr_multiply_generic           12055 13.7    0.911    1.005 2162.346 2186.947
 qs_scf_new_mos                     790  9.0    0.005    0.012 2037.896 2045.742
 qs_scf_loop_do_ot                  790 10.0    0.005    0.008 2037.890 2045.731
 init_scf_loop                       57  8.0    0.003    0.003 1967.535 1967.609
 ot_scf_mini                        790 11.0    0.026    0.034 1904.663 1907.743
 multiply_cannon                  12055 14.7    2.389    2.779 1800.041 1874.874
 prepare_preconditioner              57  9.0    0.000    0.001 1641.835 1642.753
 multiply_cannon_multrec         144660 15.7 1536.171 1616.599 1536.308 1616.728
 qs_rho_update_rho                  846  9.1    0.005    0.008 1587.852 1591.137
 calculate_rho_elec                 846 10.1 1099.102 1139.244 1587.847 1591.131
 make_preconditioner                 57 10.0    0.001    0.002 1580.320 1580.853
 make_full_all                       57 11.0    0.097    0.137 1530.909 1530.971
 sum_up_and_integrate               478 11.7    2.350    2.438 1500.148 1500.443
 integrate_v_rspace                 478 12.7 1267.354 1302.209 1497.798 1498.188
 qs_vxc_create                      845 11.8    0.015    0.016 1271.899 1272.510
 pw_transfer                      14137 13.3    1.088    1.201 1197.730 1208.973
 fft_wrap_pw1pw2                  12447 14.3    0.154    0.170 1179.554 1190.943
 ot_mini                            790 12.0    0.005    0.007 1152.613 1158.816
 fft_wrap_pw1pw2_180               7151 15.6  101.253  103.155 1137.143 1148.398
 cp_fm_syevd                        726 13.5    0.012    0.016 1127.395 1130.319
 cp_fm_syevd_base                   726 14.5 1127.382 1130.308 1127.382 1130.308
 xc_rho_set_and_dset_create         845 13.8    7.068    7.129  899.481  905.019
 fft3d_ps                         12447 16.3  492.543  500.025  883.854  897.214
 xc_vxc_pw_create                   478 12.7   25.605   27.791  879.958  880.566
 apply_preconditioner_dbcsr         480 14.0    0.001    0.002  666.875  679.430
 apply_all                          480 15.0    1.199    1.254  666.874  679.429
 ot_new_cg_direction                423 13.0    0.008    0.011  603.144  603.161
 qs_ot_get_derivative               423 13.0    0.005    0.006  543.438  547.412
 density_rs2pw                      846 11.1    0.057    0.071  441.524  473.847
 xc_functional_eval                 845 14.8    0.009    0.010  410.309  415.938
 pbe_lda_eval                       845 15.8  410.300  415.929  410.300  415.929
 qs_ks_update_qs_env_forces          55  6.0    0.000    0.000  397.803  398.311
 xc_exc_calc                        367 13.0    1.549    1.561  391.926  391.941
 qs_ot_get_p                        847 11.9    0.006    0.007  313.656  327.666
 init_scf_run                        56  7.0    0.001    0.003  280.828  280.851
 scf_env_initial_rho_setup           56  8.0    0.001    0.002  280.827  280.850
 wfi_extrapolate                     56  9.0    0.009    0.011  276.327  276.328
 mp_waitall_1                    776037 17.0  232.620  265.280  232.620  265.280
 cp_gemm                            927 10.2    0.004    0.005  263.052  264.330
 cp_gemm_fm_gemm                    927 11.2    0.003    0.004  263.048  264.326
 cp_fm_gemm                         927 12.2  263.045  264.322  263.045  264.322
 rs_pw_transfer                    6731 12.9    0.102    0.112  226.819  257.357
 x_to_yz                           6249 18.1  188.096  189.215  252.654  256.588
 qs_ot_get_orbitals                 790 12.0    0.005    0.007  242.881  247.243
 make_m2s                         24110 14.7    0.877    1.010  233.756  236.387
 qs_ot_get_derivative_diag          249 14.0    0.008    0.010  211.839  214.498
 multiply_cannon_metrocomm3      144660 15.7    0.376    0.421  150.522  191.929
 cp_fm_cholesky_reduce               57 12.0  180.370  180.410  180.370  180.410
 potential_pw2rs                    478 13.7    0.180    0.262  177.774  178.190
 -------------------------------------------------------------------------------

 The number of warnings for this run is : 2
 
 -------------------------------------------------------------------------------
  **** **** ******  **  PROGRAM ENDED AT                 2022-07-05 21:32:50.869
 ***** ** ***  *** **   PROGRAM RAN ON             node0693.palmetto.clemson.edu
 **    ****   ******    PROGRAM RAN BY                                   xiutinc
 ***** **    ** ** **   PROGRAM PROCESS ID                               1161622
  **** **  *******  **  PROGRAM STOPPED IN  /scratch1/xiutinc/CP2K-5305494.pbs02
