ITEM: TIMESTEP
1500000
ITEM: NUMBER OF ATOMS
5487
ITEM: BOX BOUNDS pp pp pp
2.4900000000000000e-01 2.4248999999999999e+01
2.5950000000000001e-01 2.4259499999999999e+01
0.0000000000000000e+00 1.0536952658408562e+02
ITEM: ATOMS id mol type q x y z
1 1 2 0.417 18.5979 22.2256 86.3001
2 1 2 0.417 19.1735 22.1667 84.9043
3 1 5 -0.834 18.3682 22.5859 85.3738
4 2 2 0.417 10.0908 3.32273 67.5153
5 2 2 0.417 8.94726 2.5192 66.835
6 2 5 -0.834 9.85127 2.86532 66.6577
7 3 2 0.417 21.4333 1.74391 55.3773
8 3 2 0.417 22.1683 0.482423 54.9626
9 3 5 -0.834 21.5833 1.13376 54.6033
10 4 2 0.417 23.8805 3.99832 56.0417
11 4 2 0.417 23.8456 3.43621 57.3419
12 4 5 -0.834 23.4226 3.33105 56.4967
13 5 2 0.417 16.8528 12.5715 39.7065
14 5 2 0.417 16.7672 11.2887 40.6361
15 5 5 -0.834 16.2666 11.8844 40.0634
16 6 2 0.417 19.2668 15.0365 45.8003
17 6 2 0.417 20.4221 14.0947 45.5161
18 6 5 -0.834 20.239 15.0779 45.6434
19 7 2 0.417 6.47714 16.7317 60.2059
20 7 2 0.417 7.11602 15.4512 59.8168
21 7 5 -0.834 7.35226 16.395 59.9388
22 8 2 0.417 23.3038 21.563 19.92
23 8 2 0.417 22.5065 20.6803 20.7846
24 8 5 -0.834 22.4011 21.4891 20.3136
25 9 2 0.417 5.62617 1.59183 91.6883
26 9 2 0.417 4.88757 2.62985 92.4816
27 9 5 -0.834 5.79641 2.3696 92.2451
28 10 2 0.417 3.32145 11.4295 91.3215
29 10 2 0.417 2.90461 10.0466 91.2466
30 10 5 -0.834 2.88615 10.8554 90.673
31 11 2 0.417 10.8927 13.914 47.5802
32 11 2 0.417 9.86491 13.9487 46.5329
33 11 5 -0.834 10.7626 13.7323 46.6589
34 12 2 0.417 3.1091 11.3483 47.9428
35 12 2 0.417 4.02358 12.1307 47.0447
36 12 5 -0.834 4.02725 11.3742 47.6571
37 13 2 0.417 17.5187 8.08307 70.4877
38 13 2 0.417 16.7264 7.39651 71.7201
39 13 5 -0.834 16.8854 7.40674 70.7136
40 14 2 0.417 19.1966 22.2327 78.1915
41 14 2 0.417 17.7954 21.9504 77.9254
42 14 5 -0.834 18.4582 22.6531 77.7638
43 15 2 0.417 22.6567 13.2898 9.13026
44 15 2 0.417 21.7666 13.0161 8.00001
45 15 5 -0.834 21.7093 13.2882 8.95444
46 16 2 0.417 1.7391 22.3159 78.5906
47 16 2 0.417 0.565548 23.0271 78.2773
48 16 5 -0.834 0.808231 22.265 78.8548
49 17 2 0.417 16.7331 21.8462 52.7046
50 17 2 0.417 15.2885 21.3047 52.4416
51 17 5 -0.834 15.9543 21.9188 52.1014
52 18 2 0.417 21.6184 8.70649 83.6777
53 18 2 0.417 20.9114 7.65126 82.911
54 18 5 -0.834 21.6081 8.3086 82.8247
55 19 2 0.417 17.8472 20.2079 59.805
56 19 2 0.417 16.8699 21.0935 59.2718
57 19 5 -0.834 17.5108 20.4394 58.9471
58 20 2 0.417 12.637 4.17091 78.2668
59 20 2 0.417 12.2834 5.00044 79.4143
60 20 5 -0.834 11.9844 4.19325 79.0109
61 21 2 0.417 8.35542 22.7288 51.9074
62 21 2 0.417 8.80122 21.4953 51.3428
63 21 5 -0.834 9.15861 22.1888 51.9046
64 22 2 0.417 19.3517 18.8245 61.2856
65 22 2 0.417 17.9481 18.3147 61.2437
66 22 5 -0.834 18.4645 19.1219 61.2245
67 23 2 0.417 17.2527 3.70466 82.0537
68 23 2 0.417 18.5604 4.23167 81.3428
69 23 5 -0.834 17.9288 4.43516 82.066
70 24 2 0.417 6.03157 11.3587 51.8155
71 24 2 0.417 4.75885 10.8275 52.054
72 24 5 -0.834 5.36553 10.8624 51.3372
73 25 2 0.417 11.9177 0.562577 66.1594
74 25 2 0.417 11.1928 1.81618 65.9908
75 25 5 -0.834 12.13 1.5135 66.164
76 26 2 0.417 22.776 8.13636 50.3148
77 26 2 0.417 23.1896 6.92177 51.1319
78 26 5 -0.834 23.2936 7.31632 50.2454
79 27 2 0.417 18.9211 13.7311 70.6881
80 27 2 0.417 18.6556 12.9798 71.9531
81 27 5 -0.834 18.1697 13.4021 71.2092
82 28 2 0.417 11.0092 6.65335 36.0592
83 28 2 0.417 10.893 5.73607 37.3033
84 28 5 -0.834 10.4847 5.97415 36.4186
85 29 2 0.417 8.83215 18.4098 82.9552
86 29 2 0.417 10.17 18.9373 82.339
87 29 5 -0.834 9.32573 18.5329 82.105
88 30 2 0.417 19.6412 4.32178 94.9104
89 30 2 0.417 18.2137 4.56993 95.3148
90 30 5 -0.834 19.0117 5.03547 94.9311
91 31 2 0.417 12.7655 13.007 103.648
92 31 2 0.417 12.2317 12.7697 105.023
93 31 5 -0.834 12.9008 13.2999 104.587
94 32 2 0.417 10.0208 13.8564 87.3307
95 32 2 0.417 10.5742 15.1801 87.4514
96 32 5 -0.834 10.8692 14.285 87.3251
97 33 2 0.417 18.3328 14.6306 52.2248
98 33 2 0.417 19.3345 15.1836 53.202
99 33 5 -0.834 19.0691 14.3269 52.7683
100 34 2 0.417 12.3168 14.386 53.9605
101 34 2 0.417 13.0499 13.6139 52.8492
102 34 5 -0.834 12.4911 14.3657 52.9892
103 35 2 0.417 11.6758 7.11007 48.6344
104 35 2 0.417 12.4904 7.78418 47.7258
105 35 5 -0.834 11.5386 7.74847 47.9848
106 36 2 0.417 0.968425 21.846 70.5299
107 36 2 0.417 1.95504 21.0891 69.7553
108 36 5 -0.834 1.17406 20.9098 70.3186
109 37 2 0.417 4.20324 15.7685 53.3844
110 37 2 0.417 2.74769 15.5903 53.6529
111 37 5 -0.834 3.54769 15.0495 53.5067
112 38 2 0.417 18.1579 0.527579 75.2353
113 38 2 0.417 17.9224 0.405888 76.771
114 38 5 -0.834 17.6945 1.00104 75.9459
115 39 2 0.417 16.2971 20.9323 50.789
116 39 2 0.417 15.3227 20.6856 49.6094
117 39 5 -0.834 16.1947 20.4277 49.9244
118 40 2 0.417 9.90943 7.95485 23.4263
119 40 2 0.417 8.58999 8.56557 23.0854
120 40 5 -0.834 8.94388 7.82879 23.6324
121 41 2 0.417 22.0123 17.0118 96.8165
122 41 2 0.417 22.8951 16.7076 95.5744
123 41 5 -0.834 22.8915 17.0924 96.4737
124 42 2 0.417 2.67365 9.99891 53.2295
125 42 2 0.417 3.41372 11.1126 53.8133
126 42 5 -0.834 3.60445 10.2847 53.3469
127 43 2 0.417 13.3855 13.8722 43.3559
128 43 2 0.417 14.538 14.313 44.2728
129 43 5 -0.834 14.3298 14.0109 43.3556
130 44 2 0.417 11.4067 19.8468 32.8356
131 44 2 0.417 10.9109 19.433 34.2471
132 44 5 -0.834 10.574 19.8294 33.3597
133 45 2 0.417 23.6376 15.1145 13.4608
134 45 2 0.417 23.4646 14.7526 14.9117
135 45 5 -0.834 23.1306 15.4328 14.2423
136 46 2 0.417 23.5321 17.2579 52.4396
137 46 2 0.417 22.4921 16.2157 52.2295
138 46 5 -0.834 22.5807 17.1875 52.3581
139 47 2 0.417 2.49801 16.8241 43.9028
140 47 2 0.417 3.93495 16.526 43.7696
141 47 5 -0.834 3.05376 16.2516 43.3909
142 48 2 0.417 19.3685 3.03892 87.9643
143 48 2 0.417 19.9163 3.85904 89.1636
144 48 5 -0.834 19.9572 3.83639 88.1752
145 49 2 0.417 10.0414 21.4808 89.436
146 49 2 0.417 8.52206 21.4641 89.0783
147 49 5 -0.834 9.3903 21.5031 88.7159
148 50 2 0.417 11.7592 1.3768 88.4024
149 50 2 0.417 10.6239 2.12011 89.0845
150 50 5 -0.834 10.9587 1.9035 88.1707
151 51 2 0.417 10.8579 22.6792 66.729
152 51 2 0.417 9.74086 22.598 65.9279
153 51 5 -0.834 10.6027 23.0152 65.9006
154 52 2 0.417 4.13857 22.3377 84.5115
155 52 2 0.417 5.17864 23.4579 84.5027
156 52 5 -0.834 4.86917 22.6627 83.9839
157 53 2 0.417 0.505525 23.723 54.4437
158 53 2 0.417 24.1159 22.2162 54.1281
159 53 5 -0.834 23.8115 23.127 54.0621
160 54 2 0.417 21.3139 18.388 51.8379
161 54 2 0.417 20.5887 19.3171 52.6288
162 54 5 -0.834 20.8212 19.1841 51.6621
163 55 2 0.417 2.33451 22.0618 46.4593
164 55 2 0.417 0.972708 22.4881 46.7693
165 55 5 -0.834 1.52279 22.3038 46.0393
166 56 2 0.417 1.41007 11.8643 40.2092
167 56 2 0.417 0.853996 11.2013 41.4867
168 56 5 -0.834 0.96842 11.0553 40.4877
169 57 2 0.417 5.6598 4.42405 24.1858
170 57 2 0.417 5.87391 5.7707 24.8455
171 57 5 -0.834 5.95283 4.80101 24.9996
172 58 2 0.417 23.6127 13.5815 41.3339
173 58 2 0.417 22.9278 14.9436 41.2892
174 58 5 -0.834 23.5808 14.3797 40.7708
175 59 2 0.417 11.4944 1.12065 93.1244
176 59 2 0.417 10.0564 1.08407 93.7643
177 59 5 -0.834 10.6267 0.697462 93.1528
178 60 2 0.417 2.66387 8.67075 78.7036
179 60 2 0.417 3.63391 7.55962 78.5543
180 60 5 -0.834 2.95001 7.98788 78.0509
181 61 2 0.417 19.7101 1.49959 37.8587
182 61 2 0.417 19.508 2.74648 37.0102
183 61 5 -0.834 20.0115 1.88052 36.9498
184 62 2 0.417 21.4144 23.5161 76.0514
185 62 2 0.417 21.0064 23.3098 77.471
186 62 5 -0.834 21.3645 23.9679 76.885
187 63 2 0.417 3.5561 1.16567 50.3094
188 63 2 0.417 2.31669 0.973414 49.4598
189 63 5 -0.834 3.26491 0.878523 49.4514
190 64 2 0.417 4.64749 22.511 40.8307
191 64 2 0.417 5.18991 21.772 39.5218
192 64 5 -0.834 4.38165 21.8927 40.1535
193 65 2 0.417 17.1413 2.17297 64.901
194 65 2 0.417 17.5803 1.54239 66.2631
195 65 5 -0.834 17.6306 1.38177 65.2677
196 66 2 0.417 4.17396 9.9703 37.575
197 66 2 0.417 4.72893 11.3556 37.2509
198 66 5 -0.834 4.80503 10.423 36.9445
199 67 2 0.417 11.2369 21.4829 44.5913
200 67 2 0.417 12.0122 20.4601 43.7137
201 67 5 -0.834 11.2455 21.0909 43.6855
202 68 2 0.417 5.15186 13.5093 35.5754
203 68 2 0.417 5.21626 14.1815 36.8883
204 68 5 -0.834 5.73529 13.5207 36.3674
205 69 2 0.417 14.8477 3.12049 14.1762
206 69 2 0.417 15.851 2.36885 15.0894
207 69 5 -0.834 15.3373 3.19692 14.9981
208 70 2 0.417 15.0996 11.4956 71.6137
209 70 2 0.417 15.5311 10.6753 70.4373
210 70 5 -0.834 14.9113 10.6656 71.1808
211 71 2 0.417 8.19354 20.1793 63.0748
212 71 2 0.417 7.17739 19.1012 63.2486
213 71 5 -0.834 7.24358 20.0584 63.1217
214 72 2 0.417 17.0756 0.790971 73.2469
215 72 2 0.417 16.423 2.04589 72.7364
216 72 5 -0.834 16.4538 1.04772 72.5299
217 73 2 0.417 9.7928 6.45203 76.3112
218 73 2 0.417 10.0721 5.14537 75.6813
219 73 5 -0.834 9.61465 5.90679 75.5021
220 74 2 0.417 8.05057 19.8828 50.2164
221 74 2 0.417 7.40805 18.911 51.1902
222 74 5 -0.834 7.37761 19.8408 50.946
223 75 2 0.417 23.0406 15.8289 83.0487
224 75 2 0.417 23.9962 16.9711 83.4664
225 75 5 -0.834 23.8966 16.1659 82.8849
226 76 2 0.417 24.1245 23.7273 49.8901
227 76 2 0.417 0.437406 22.2435 49.8832
228 76 5 -0.834 23.9605 22.9211 49.3891
229 77 2 0.417 14.2209 11.8719 67.0009
230 77 2 0.417 15.5554 12.5582 66.6962
231 77 5 -0.834 15.0539 11.6745 66.6163
232 78 2 0.417 4.94278 5.92611 103.039
233 78 2 0.417 4.50404 4.66224 102.281
234 78 5 -0.834 5.14477 4.9508 103
235 79 2 0.417 13.1069 1.49949 36.5706
236 79 2 0.417 11.903 2.08036 37.1946
237 79 5 -0.834 12.8084 2.28338 37.0781
238 80 2 0.417 2.04375 21.868 86.2462
239 80 2 0.417 2.80064 20.8883 85.4582
240 80 5 -0.834 2.65564 21.8513 85.4835
241 81 2 0.417 23.2265 9.54614 39.209
242 81 2 0.417 22.6051 10.5998 38.3621
243 81 5 -0.834 23.0259 9.70163 38.261
244 82 2 0.417 12.0082 22.2521 7.66844
245 82 2 0.417 13.0085 21.346 6.91382
246 82 5 -0.834 12.9396 22.2234 7.35973
247 83 2 0.417 7.95052 10.3634 45.6355
248 83 2 0.417 7.14825 10.7033 46.8177
249 83 5 -0.834 7.00047 10.3636 45.9114
250 84 2 0.417 20.9302 16.0667 88.1339
251 84 2 0.417 20.2716 14.9576 87.4552
252 84 5 -0.834 20.3159 15.3814 88.3104
253 85 2 0.417 15.9173 9.75648 86.6492
254 85 2 0.417 15.2182 8.81499 85.8093
255 85 5 -0.834 14.9599 9.56305 86.3434
256 86 2 0.417 10.4377 1.24049 38.9106
257 86 2 0.417 9.94807 0.404933 37.6916
258 86 5 -0.834 10.2154 1.28188 37.9427
259 87 2 0.417 3.0827 7.45218 46.2872
260 87 2 0.417 3.45263 6.86163 45.0198
261 87 5 -0.834 2.61787 7.10626 45.4771
262 88 2 0.417 13.2828 6.30139 80.9903
263 88 2 0.417 14.516 5.63292 80.7868
264 88 5 -0.834 13.6968 5.81654 80.2975
265 89 2 0.417 10.0289 20.6994 61.81
266 89 2 0.417 10.2624 19.6699 62.7699
267 89 5 -0.834 9.76029 20.4409 62.6849
268 90 2 0.417 22.163 22.6809 49.729
269 90 2 0.417 21.2049 23.2597 50.647
270 90 5 -0.834 21.2395 22.8187 49.7717
271 91 2 0.417 22.491 2.38859 81.688
272 91 2 0.417 23.4771 3.16821 80.8522
273 91 5 -0.834 22.5438 2.89697 80.8493
274 92 2 0.417 9.40389 7.54429 51.9339
275 92 2 0.417 8.19083 7.42625 51.2329
276 92 5 -0.834 9.03757 7.76879 51.0363
277 93 2 0.417 11.708 15.3437 45.8319
278 93 2 0.417 12.8452 15.4611 46.7019
279 93 5 -0.834 12.5677 15.8073 45.8573
280 94 2 0.417 22.5347 5.10737 72.1264
281 94 2 0.417 21.6892 6.06991 71.4422
282 94 5 -0.834 22.0837 5.19641 71.2432
283 95 2 0.417 4.8613 10.4908 60.0163
284 95 2 0.417 4.86364 8.95953 59.6192
285 95 5 -0.834 5.37717 9.79041 59.4712
286 96 2 0.417 1.88169 12.9234 83.0392
287 96 2 0.417 1.40489 11.4851 82.9979
288 96 5 -0.834 1.26427 12.3701 82.5498
289 97 2 0.417 22.0948 10.7731 69.9764
290 97 2 0.417 21.6663 10.7423 71.3746
291 97 5 -0.834 21.3047 10.5588 70.4552
292 98 2 0.417 16.7071 8.25715 83.4901
293 98 2 0.417 17.6257 9.35936 83.9025
294 98 5 -0.834 17.585 8.40213 83.8465
295 99 2 0.417 5.03095 4.08855 64.6824
296 99 2 0.417 4.83727 3.92667 66.1027
297 99 5 -0.834 4.36574 4.32741 65.3364
298 100 2 0.417 19.7547 7.89047 71.5806
299 100 2 0.417 19.8081 7.32427 72.9035
300 100 5 -0.834 20.3801 7.47555 72.1565
301 101 2 0.417 10.0692 17.534 7.81837
302 101 2 0.417 8.67463 17.2499 8.06379
303 101 5 -0.834 9.51083 17.3046 8.57208
304 102 2 0.417 19.7319 1.04868 98.2615
305 102 2 0.417 20.4332 1.53704 96.9597
306 102 5 -0.834 19.7944 0.885443 97.2548
307 103 2 0.417 10.5795 7.89939 86.7398
308 103 2 0.417 10.3991 9.4273 86.5203
309 103 5 -0.834 10.8839 8.66244 86.1256
310 104 2 0.417 23.6752 16.4161 89.8948
311 104 2 0.417 23.9851 14.9812 89.8131
312 104 5 -0.834 24.161 15.7693 89.3622
313 105 2 0.417 20.8629 11.5883 41.6157
314 105 2 0.417 20.9082 12.9796 41.6389
315 105 5 -0.834 21.3077 12.25 42.1254
316 106 2 0.417 14.3909 20.6133 44.0011
317 106 2 0.417 14.1477 19.3101 44.6811
318 106 5 -0.834 13.702 19.976 44.0899
319 107 2 0.417 5.09186 15.9075 72.5333
320 107 2 0.417 5.71712 14.5876 72.919
321 107 5 -0.834 4.97198 14.9518 72.4712
322 108 2 0.417 2.34947 1.17457 38.5529
323 108 2 0.417 1.82367 1.68086 37.1548
324 108 5 -0.834 1.6975 1.84275 38.1288
325 109 2 0.417 9.72953 18.0266 52.5001
326 109 2 0.417 9.39976 19.3496 52.9086
327 109 5 -0.834 9.97789 18.949 52.2577
328 110 2 0.417 4.07597 14.5985 14.2967
329 110 2 0.417 2.6341 14.4025 14.3666
330 110 5 -0.834 3.41222 14.2259 14.9009
331 111 2 0.417 17.2292 15.085 58.403
332 111 2 0.417 16.6599 14.2547 57.1908
333 111 5 -0.834 16.866 15.2029 57.4623
334 112 2 0.417 10.1007 21.6085 42.2027
335 112 2 0.417 9.57437 21.6276 40.7818
336 112 5 -0.834 9.85921 22.2376 41.5054
337 113 2 0.417 8.46969 22.6772 77.5222
338 113 2 0.417 9.61526 23.2424 76.9199
339 113 5 -0.834 9.11424 22.4524 76.9202
340 114 2 0.417 17.1968 10.6546 59.6564
341 114 2 0.417 17.2196 9.30293 59.046
342 114 5 -0.834 17.3416 10.1986 58.7733
343 115 2 0.417 14.1595 21.2228 71.201
344 115 2 0.417 15.6024 21.2076 71.649
345 115 5 -0.834 14.8851 20.6168 71.4743
346 116 2 0.417 16.1524 15.162 46.09
347 116 2 0.417 14.7374 15.0552 46.0861
348 116 5 -0.834 15.4459 15.0044 45.4477
349 117 2 0.417 18.8909 9.75465 3.65403
350 117 2 0.417 17.7445 10.755 3.70609
351 117 5 -0.834 18.6139 10.4968 4.16082
352 118 2 0.417 12.3676 2.5472 10.2242
353 118 2 0.417 13.2226 1.29857 10.1049
354 118 5 -0.834 13.2023 2.19638 10.5449
355 119 2 0.417 23.8244 5.97358 88.4486
356 119 2 0.417 0.784463 4.77589 88.1409
357 119 5 -0.834 0.746241 5.7336 88.5072
358 120 2 0.417 4.23139 8.23075 51.3256
359 120 2 0.417 4.02952 8.91471 52.6554
360 120 5 -0.834 4.20441 7.99854 52.2531
361 121 2 0.417 8.44851 16.2877 61.3134
362 121 2 0.417 9.7178 15.5453 61.272
363 121 5 -0.834 9.33759 16.277 61.7409
364 122 2 0.417 18.5328 9.835 56.7606
365 122 2 0.417 19.2632 9.26666 55.5424
366 122 5 -0.834 18.3843 9.36137 55.9184
367 123 2 0.417 15.5352 22.9011 80.0355
368 123 2 0.417 15.5542 21.9683 78.8755
369 123 5 -0.834 15.1379 22.7841 79.1365
370 124 2 0.417 20.7616 18.7188 82.173
371 124 2 0.417 21.7948 19.0523 81.118
372 124 5 -0.834 20.8321 19.2241 81.3214
373 125 2 0.417 3.59653 11.0793 84.5116
374 125 2 0.417 3.07767 9.90466 84.9695
375 125 5 -0.834 2.84011 10.5333 84.2878
376 126 2 0.417 18.4251 4.77493 55.7741
377 126 2 0.417 17.7857 5.90227 54.9797
378 126 5 -0.834 17.6676 4.90461 55.1884
379 127 2 0.417 17.8011 9.01822 67.0353
380 127 2 0.417 16.7833 8.9909 65.8851
381 127 5 -0.834 17.4045 8.3871 66.3586
382 128 2 0.417 9.76764 19.2238 55.9715
383 128 2 0.417 9.54619 20.5198 55.1398
384 128 5 -0.834 9.34731 19.5593 55.1364
385 129 2 0.417 9.84897 10.6069 41.0272
386 129 2 0.417 10.1798 9.13332 41.2866
387 129 5 -0.834 10.3556 9.84953 40.6291
388 130 2 0.417 20.2868 4.29812 39.613
389 130 2 0.417 20.6393 5.21045 38.444
390 130 5 -0.834 20.6908 5.18223 39.4337
391 131 2 0.417 15.9076 0.935048 81.1555
392 131 2 0.417 16.9313 24.065 81.9846
393 131 5 -0.834 16.4374 24.1191 81.1521
394 132 2 0.417 14.9254 20.1236 36.3068
395 132 2 0.417 14.6359 21.536 36.7067
396 132 5 -0.834 15.1837 21.065 36.0383
397 133 2 0.417 23.0537 18.8165 36.086
398 133 2 0.417 21.6387 18.8198 36.7995
399 133 5 -0.834 22.0972 18.9148 35.9215
400 134 2 0.417 18.8148 0.301913 39.8794
401 134 2 0.417 20.2542 0.287084 39.7722
402 134 5 -0.834 19.5187 0.8884 39.5025
403 135 2 0.417 5.43365 15.2747 87.404
404 135 2 0.417 6.05291 15.2642 88.8079
405 135 5 -0.834 6.34604 15.397 87.8034
406 136 2 0.417 8.9902 21.8819 36.6206
407 136 2 0.417 8.24484 23.0225 36.0184
408 136 5 -0.834 8.43235 22.556 36.8859
409 137 2 0.417 0.391589 20.1554 54.5663
410 137 2 0.417 1.84909 20.3291 54.4801
411 137 5 -0.834 1.06127 20.6591 54.0284
412 138 2 0.417 6.51077 17.3515 47.537
413 138 2 0.417 6.5589 16.1948 48.3113
414 138 5 -0.834 7.20854 16.719 47.7921
415 139 2 0.417 5.57068 19.6938 81.7018
416 139 2 0.417 5.19994 18.1795 81.7662
417 139 5 -0.834 5.06873 18.9824 81.206
418 140 2 0.417 11.3755 19.1369 60.1483
419 140 2 0.417 10.4785 18.0128 60.6388
420 140 5 -0.834 10.92 18.354 59.8153
421 141 2 0.417 8.11025 13.4384 88.5914
422 141 2 0.417 7.72615 14.1073 87.3114
423 141 5 -0.834 8.37203 13.4342 87.5948
424 142 2 0.417 21.6301 19.1501 45.9843
425 142 2 0.417 21.3929 20.6516 45.8589
426 142 5 -0.834 22.0274 20.0289 46.2583
427 143 2 0.417 22.2271 21.4453 87.1167
428 143 2 0.417 23.5834 21.4789 86.3819
429 143 5 -0.834 22.6575 21.2901 86.2624
430 144 2 0.417 2.65046 2.53671 89.5611
431 144 2 0.417 3.14001 3.84245 90.1485
432 144 5 -0.834 2.77283 2.98566 90.4509
433 145 2 0.417 6.60052 3.32708 67.6192
434 145 2 0.417 6.77279 4.76233 68.0723
435 145 5 -0.834 6.10927 4.07359 67.9612
436 146 2 0.417 11.721 22.1679 11.5016
437 146 2 0.417 12.8812 22.863 11.8482
438 146 5 -0.834 12.0496 22.5852 12.2354
439 147 2 0.417 23.6617 6.13757 38.7734
440 147 2 0.417 22.2783 5.85402 39.5584
441 147 5 -0.834 23.054 6.45997 39.5489
442 148 2 0.417 4.24613 7.01962 36.7271
443 148 2 0.417 5.49258 7.2405 37.4961
444 148 5 -0.834 5.05309 7.55378 36.6739
445 149 2 0.417 5.54548 19.3498 12.7591
446 149 2 0.417 4.75977 18.9403 11.7371
447 149 5 -0.834 4.69822 18.8045 12.6748
448 150 2 0.417 7.88818 9.27654 54.7508
449 150 2 0.417 6.51864 8.64875 54.5527
450 150 5 -0.834 7.31123 8.93689 54.0406
451 151 2 0.417 9.27407 0.891035 53.4635
452 151 2 0.417 8.72722 23.6051 53.8521
453 151 5 -0.834 8.38667 0.452406 53.6693
454 152 2 0.417 2.64605 2.26798 6.06077
455 152 2 0.417 1.52815 1.3296 5.8753
456 152 5 -0.834 1.98003 1.77449 6.62239
457 153 2 0.417 3.47818 0.641718 74.8414
458 153 2 0.417 4.20277 23.3733 75.4156
459 153 5 -0.834 3.45822 23.6526 74.836
460 154 2 0.417 23.6783 1.40269 37.1371
461 154 2 0.417 22.5325 1.39551 37.9663
462 154 5 -0.834 22.7897 0.997381 37.1033
463 155 2 0.417 0.842952 22.3308 22.4003
464 155 2 0.417 2.22652 22.794 22.6799
465 155 5 -0.834 1.33781 23.0042 22.9508
466 156 2 0.417 15.0593 16.0997 75.7602
467 156 2 0.417 14.9881 17.5391 75.9458
468 156 5 -0.834 15.2358 16.8876 75.286
469 157 2 0.417 16.7106 0.410924 58.1261
470 157 2 0.417 16.0666 23.1963 58.7376
471 157 5 -0.834 16.444 23.5038 57.8657
472 158 2 0.417 8.2904 4.88429 23.458
473 158 2 0.417 8.86775 6.18424 22.9987
474 158 5 -0.834 8.78193 5.25397 22.7136
475 159 2 0.417 1.52532 5.95326 54.5503
476 159 2 0.417 0.338695 5.2111 54.1434
477 159 5 -0.834 0.654604 5.63928 54.9254
478 160 2 0.417 12.3915 18.8254 73.1214
479 160 2 0.417 10.9988 18.9919 73.7507
480 160 5 -0.834 11.5399 19.2815 73.0018
481 161 2 0.417 1.37511 20.9969 20.3196
482 161 2 0.417 0.682408 20.3317 21.4087
483 161 5 -0.834 1.42403 20.9749 21.334
484 162 2 0.417 20.2446 23.0106 70.9482
485 162 2 0.417 19.8544 21.5899 70.7025
486 162 5 -0.834 19.6308 22.5065 70.4334
487 163 2 0.417 17.1034 0.652874 68.4902
488 163 2 0.417 16.9718 2.17963 68.3482
489 163 5 -0.834 17.4616 1.41011 68.0596
490 164 2 0.417 11.3459 2.63834 86.0256
491 164 2 0.417 10.0629 2.02303 85.412
492 164 5 -0.834 10.811 2.54154 85.1814
493 165 2 0.417 11.4961 7.87205 80.9556
494 165 2 0.417 10.1359 7.58878 81.2115
495 165 5 -0.834 10.735 7.58299 80.4178
496 166 2 0.417 14.03 8.52157 19.5911
497 166 2 0.417 13.2695 9.81755 19.7291
498 166 5 -0.834 13.8833 9.27205 20.2326
499 167 2 0.417 6.14806 20.1965 44.5958
500 167 2 0.417 4.84938 20.7074 44.9909
501 167 5 -0.834 5.43321 19.9867 45.2223
502 168 2 0.417 13.5082 9.47946 51.1866
503 168 2 0.417 14.7737 8.83806 51.4881
504 168 5 -0.834 14.1545 9.35373 51.9312
505 169 2 0.417 10.8797 11.3847 57.3166
506 169 2 0.417 10.9416 12.7726 56.9467
507 169 5 -0.834 10.7323 11.9279 56.5276
508 170 2 0.417 24.0026 23.8673 72.4712
509 170 2 0.417 23.2234 0.684449 73.5968
510 170 5 -0.834 23.1944 23.8369 73.0821
511 171 2 0.417 4.75465 16.9862 74.7566
512 171 2 0.417 6.03253 17.5701 75.1511
513 171 5 -0.834 5.67505 16.9275 74.5106
514 172 2 0.417 16.5175 1.89897 93.656
515 172 2 0.417 16.5437 3.01928 94.5191
516 172 5 -0.834 15.9529 2.62683 93.8797
517 173 2 0.417 12.9266 19.0814 46.5643
518 173 2 0.417 11.5689 19.2691 47.2272
519 173 5 -0.834 12.4968 19.5438 47.2906
520 174 2 0.417 1.92017 16.1691 79.6849
521 174 2 0.417 1.37683 15.6005 81.0132
522 174 5 -0.834 2.2116 15.8207 80.512
523 175 2 0.417 9.81671 4.67533 55.2615
524 175 2 0.417 11.335 4.59627 55.3885
525 175 5 -0.834 10.599 5.25604 55.4089
526 176 2 0.417 11.5614 19.4583 71.1518
527 176 2 0.417 11.9936 20.3169 70.0822
528 176 5 -0.834 11.4741 19.4946 70.1646
529 177 2 0.417 13.497 2.60795 66.5168
530 177 2 0.417 13.6823 4.07855 66.9486
531 177 5 -0.834 14.172 3.29216 66.7606
532 178 2 0.417 19.7412 5.55792 36.2469
533 178 2 0.417 20.6863 6.57546 36.8684
534 178 5 -0.834 20.5638 5.5772 36.7233
535 179 2 0.417 23.2997 3.97534 70.1239
536 179 2 0.417 22.7322 3.84575 68.8418
537 179 5 -0.834 23.4678 3.4219 69.3517
538 180 2 0.417 9.8284 0.281949 33.7342
539 180 2 0.417 8.40438 0.738622 34.0698
540 180 5 -0.834 9.07714 0.827524 33.4152
541 181 2 0.417 8.31259 16.9005 58.4011
542 181 2 0.417 7.55753 16.5451 57.23
543 181 5 -0.834 8.45019 16.6545 57.4878
544 182 2 0.417 15.6518 19.0012 1.5853
545 182 2 0.417 16.3092 20.3138 1.88041
546 182 5 -0.834 15.527 19.7849 2.20151
547 183 2 0.417 15.4962 3.27973 74.23
548 183 2 0.417 14.7609 3.16268 73.0248
549 183 5 -0.834 15.6662 3.39174 73.3099
550 184 2 0.417 8.88469 11.496 83.4154
551 184 2 0.417 9.54804 12.7924 83.0745
552 184 5 -0.834 9.76559 11.9104 83.1881
553 185 2 0.417 9.53535 15.401 52.6952
554 185 2 0.417 10.9523 15.8333 53.2156
555 185 5 -0.834 10.1109 16.188 52.9242
556 186 2 0.417 21.0548 22.1206 44.1213
557 186 2 0.417 19.8177 21.496 44.6445
558 186 5 -0.834 20.6623 21.2547 44.3226
559 187 2 0.417 8.75895 0.605531 31.6703
560 187 2 0.417 8.80994 1.47394 30.4392
561 187 5 -0.834 8.72261 0.592446 30.7368
562 188 2 0.417 23.6419 12.1215 43.2948
563 188 2 0.417 0.99588 12.7417 43.4937
564 188 5 -0.834 0.251885 12.702 42.8665
565 189 2 0.417 17.349 11.362 86.4554
566 189 2 0.417 18.2171 10.6137 87.3639
567 189 5 -0.834 17.9841 10.6504 86.4404
568 190 2 0.417 24.0577 18.7133 39.0256
569 190 2 0.417 0.996106 17.5787 38.892
570 190 5 -0.834 24.1348 17.9136 38.5129
571 191 2 0.417 13.7174 5.26742 44.8398
572 191 2 0.417 13.7504 6.67891 44.6678
573 191 5 -0.834 14.3848 5.94156 44.4882
574 192 2 0.417 14.5276 8.85191 71.1375
575 192 2 0.417 15.2786 7.65339 70.8567
576 192 5 -0.834 14.396 7.91469 71.0204
577 193 2 0.417 24.1836 20.3742 37.3609
578 193 2 0.417 0.918484 19.2083 36.8574
579 193 5 -0.834 0.412726 19.9995 36.5014
580 194 2 0.417 17.847 14.9794 47.7219
581 194 2 0.417 17.259 16.3696 47.2549
582 194 5 -0.834 17.5447 15.5169 46.9192
583 195 2 0.417 10.1973 15.8858 48.4303
584 195 2 0.417 9.05285 16.4233 47.7456
585 195 5 -0.834 10.0086 16.6014 47.6868
586 196 2 0.417 15.05 6.85348 85.195
587 196 2 0.417 14.3232 7.6603 84.1123
588 196 5 -0.834 15.191 7.29775 84.3164
589 197 2 0.417 19.2054 7.46385 47.6065
590 197 2 0.417 18.9015 6.44666 48.5869
591 197 5 -0.834 18.8744 7.47421 48.5365
592 198 2 0.417 3.20121 21.5809 55.8979
593 198 2 0.417 3.11142 23.1439 55.5825
594 198 5 -0.834 3.66386 22.3259 55.4653
595 199 2 0.417 23.1547 18.1206 91.2899
596 199 2 0.417 24.1504 19.3226 91.242
597 199 5 -0.834 23.9779 18.5 90.7733
598 200 2 0.417 14.3918 1.0506 70.4749
599 200 2 0.417 14.9139 0.652382 71.7467
600 200 5 -0.834 14.165 0.456169 71.1614
601 201 2 0.417 9.17257 19.5815 36.2974
602 201 2 0.417 10.5943 19.5153 36.6769
603 201 5 -0.834 9.81273 20.0908 36.7719
604 202 2 0.417 19.1969 2.73428 41.6625
605 202 2 0.417 19.4143 2.47296 40.2335
606 202 5 -0.834 19.2552 3.21234 40.8397
607 203 2 0.417 2.36024 16.4175 71.4237
608 203 2 0.417 3.26744 15.4041 71.7671
609 203 5 -0.834 2.43465 15.4682 71.3009
610 204 2 0.417 0.987212 10.0971 37.6737
611 204 2 0.417 2.08479 10.9011 38.4643
612 204 5 -0.834 1.87327 10.521 37.593
613 205 2 0.417 22.3444 0.385874 78.5048
614 205 2 0.417 22.5388 1.56513 79.4966
615 205 5 -0.834 22.7638 0.640163 79.3521
616 206 2 0.417 12.1585 21.0181 90.687
617 206 2 0.417 11.3074 21.1917 91.7902
618 206 5 -0.834 11.2672 20.9351 90.8819
619 207 2 0.417 13.3887 3.85223 83.725
620 207 2 0.417 14.4621 4.58348 84.3488
621 207 5 -0.834 14.2809 4.17383 83.5492
622 208 2 0.417 2.69684 15.5528 38.0793
623 208 2 0.417 2.1691 14.741 37.027
624 208 5 -0.834 1.85231 15.3983 37.5956
625 209 2 0.417 5.47626 10.3772 78.7594
626 209 2 0.417 5.91338 8.97864 79.1474
627 209 5 -0.834 6.13151 9.74817 78.516
628 210 2 0.417 15.1055 15.7924 81.1248
629 210 2 0.417 14.0709 14.8354 81.4686
630 210 5 -0.834 14.7166 15.3961 81.9113
631 211 2 0.417 14.2848 2.56124 18.5933
632 211 2 0.417 15.4507 3.07286 19.3593
633 211 5 -0.834 14.7149 2.40468 19.481
634 212 2 0.417 15.7916 10.5254 35.5914
635 212 2 0.417 16.4664 9.30698 34.915
636 212 5 -0.834 15.6831 9.53536 35.418
637 213 2 0.417 4.98399 13.2142 68.0736
638 213 2 0.417 4.48342 12.2444 69.1311
639 213 5 -0.834 4.70021 12.2641 68.152
640 214 2 0.417 12.6915 20.2437 64.6231
641 214 2 0.417 12.8859 19.7337 66.0619
642 214 5 -0.834 13.1965 19.5386 65.1377
643 215 2 0.417 14.6913 19.0295 72.9793
644 215 2 0.417 14.4836 17.7311 73.9943
645 215 5 -0.834 14.1009 18.3715 73.3392
646 216 2 0.417 19.5128 18.0317 57.247
647 216 2 0.417 18.4971 17.0196 57.1744
648 216 5 -0.834 19.4894 17.105 57.1293
649 217 2 0.417 3.98101 11.1387 89.2855
650 217 2 0.417 5.4212 11.3685 89.3009
651 217 5 -0.834 4.74142 11.206 88.6548
652 218 2 0.417 17.9876 6.27476 61.2887
653 218 2 0.417 16.9732 7.249 61.6981
654 218 5 -0.834 17.0645 6.52955 61.0485
655 219 2 0.417 19.2707 21.9228 53.0297
656 219 2 0.417 18.4245 22.2056 54.1607
657 219 5 -0.834 18.4033 22.2493 53.1785
658 220 2 0.417 12.2069 9.87025 75.9086
659 220 2 0.417 10.9106 9.93231 75.164
660 220 5 -0.834 11.5732 10.5273 75.4992
661 221 2 0.417 8.02478 10.1853 52.954
662 221 2 0.417 9.22852 10.9585 53.0942
663 221 5 -0.834 8.31383 11.0357 52.6772
664 222 2 0.417 10.906 24.1692 74.8362
665 222 2 0.417 11.8491 24.0002 73.7964
666 222 5 -0.834 11.1824 0.598875 74.0119
667 223 2 0.417 8.43669 15.7066 75.6298
668 223 2 0.417 7.13368 15.6526 74.8243
669 223 5 -0.834 8.02423 15.177 74.8884
670 224 2 0.417 12.4599 8.41243 69.2893
671 224 2 0.417 11.9959 9.54318 68.3481
672 224 5 -0.834 12.5197 8.74489 68.3811
673 225 2 0.417 9.65016 18.3995 89.6473
674 225 2 0.417 10.7667 19.372 89.929
675 225 5 -0.834 10.649 18.442 89.7596
676 226 2 0.417 4.14094 19.8403 88.11
677 226 2 0.417 4.32995 20.8793 89.2176
678 226 5 -0.834 4.50486 20.7368 88.2803
679 227 2 0.417 19.4235 19.2606 91.1394
680 227 2 0.417 18.1167 19.9318 91.4624
681 227 5 -0.834 18.4709 19.2165 91.049
682 228 2 0.417 9.31629 10.598 56.4044
683 228 2 0.417 9.18099 9.20767 56.8211
684 228 5 -0.834 8.68243 9.91387 56.3774
685 229 2 0.417 17.0236 7.1042 46.0849
686 229 2 0.417 16.4443 6.01977 45.2157
687 229 5 -0.834 17.1162 6.13023 45.8958
688 230 2 0.417 22.0406 17.5209 66.0869
689 230 2 0.417 23.2322 17.8335 65.4027
690 230 5 -0.834 22.4789 17.4221 65.2144
691 231 2 0.417 23.1438 9.59834 43.3709
692 231 2 0.417 22.4507 10.9107 43.2745
693 231 5 -0.834 23.026 10.4168 43.8697
694 232 2 0.417 5.90131 21.9078 70.3056
695 232 2 0.417 4.5694 22.3485 70.8832
696 232 5 -0.834 4.95475 21.8903 70.082
697 233 2 0.417 7.0953 22.2624 38.126
698 233 2 0.417 5.95896 23.1858 38.3088
699 233 5 -0.834 6.18744 22.2712 38.3693
700 234 2 0.417 20.8737 4.5962 69.5643
701 234 2 0.417 20.6648 5.14208 68.121
702 234 5 -0.834 21.0152 4.35731 68.6491
703 235 2 0.417 18.0257 10.5266 50.2505
704 235 2 0.417 16.8521 10.6415 51.1625
705 235 5 -0.834 17.2586 11.073 50.43
706 236 2 0.417 15.738 2.0061 47.8645
707 236 2 0.417 17.0638 1.95718 47.3368
708 236 5 -0.834 16.212 2.34058 47.0973
709 237 2 0.417 4.62711 20.0266 9.52679
710 237 2 0.417 4.08366 18.7675 9.11689
711 237 5 -0.834 4.73456 19.103 9.70018
712 238 2 0.417 10.6202 8.95002 71.6389
713 238 2 0.417 9.7459 7.80505 72.2178
714 238 5 -0.834 10.5038 7.96634 71.7039
715 239 2 0.417 1.73847 22.0719 76.6348
716 239 2 0.417 1.87171 23.1479 75.5854
717 239 5 -0.834 1.23634 22.4598 75.9076
718 240 2 0.417 5.29869 23.917 89.3296
719 240 2 0.417 6.57207 0.584415 89.7754
720 240 5 -0.834 5.7669 24.1582 90.151
721 241 2 0.417 5.32408 19.2314 46.8656
722 241 2 0.417 5.29522 19.4126 48.3494
723 241 5 -0.834 5.55197 18.776 47.7214
724 242 2 0.417 21.2108 7.36766 63.9445
725 242 2 0.417 22.511 6.96679 64.4364
726 242 5 -0.834 21.8893 6.74083 63.688
727 243 2 0.417 7.09094 5.20494 53.8247
728 243 2 0.417 7.16409 4.84044 55.3009
729 243 5 -0.834 7.27147 4.454 54.4395
730 244 2 0.417 4.11801 15.9347 80.8088
731 244 2 0.417 4.71645 15.8897 82.1759
732 244 5 -0.834 4.95719 16.0775 81.2644
733 245 2 0.417 4.6551 21.3381 52.5477
734 245 2 0.417 3.90839 20.1017 52.3939
735 245 5 -0.834 4.02611 20.9364 51.9672
736 246 2 0.417 21.7264 23.7286 82.433
737 246 2 0.417 22.3677 23.0429 81.3506
738 246 5 -0.834 21.5953 22.8705 81.9031
739 247 2 0.417 17.1375 23.5385 18.5158
740 247 2 0.417 15.5338 23.6614 18.6626
741 247 5 -0.834 16.3375 23.6848 18.0435
742 248 2 0.417 14.7252 7.22281 37.396
743 248 2 0.417 14.0705 8.48785 37.8952
744 248 5 -0.834 13.9714 7.79238 37.194
745 249 2 0.417 20.64 20.7047 38.1343
746 249 2 0.417 20.5707 22.1566 38.6991
747 249 5 -0.834 20.1979 21.5842 38.036
748 250 2 0.417 3.16594 13.5011 54.1162
749 250 2 0.417 2.75839 12.8554 55.4646
750 250 5 -0.834 2.80937 12.6535 54.4731
751 251 2 0.417 2.3538 18.3018 40.593
752 251 2 0.417 2.32469 16.7716 40.498
753 251 5 -0.834 2.49638 17.5407 39.9296