ITEM: TIMESTEP
2000000
ITEM: NUMBER OF ATOMS
4761
ITEM: BOX BOUNDS pp pp pp
0.0000000000000000e+00 2.4433001000000001e+01
0.0000000000000000e+00 2.4433001000000001e+01
0.0000000000000000e+00 8.6882897779454566e+01
ITEM: ATOMS id mol type q x y z 
1 1 1 -0.834 4.61586 6.22056 10.5133 
2 1 1 -0.834 12.3537 1.97594 73.852 
3 1 1 -0.834 12.992 24.0667 76.4586 
4 1 1 -0.834 7.31576 24.0924 59.818 
5 1 1 -0.834 14.6199 18.0659 80.3224 
6 1 1 -0.834 17.3857 10.5469 65.6557 
7 1 1 -0.834 19.7808 15.6211 59.1433 
8 1 1 -0.834 13.5652 9.73313 3.2697 
9 1 1 -0.834 19.4822 21.6902 86.0914 
10 1 1 -0.834 5.89058 18.2756 73.9571 
11 1 1 -0.834 11.409 10.3107 46.1513 
12 1 1 -0.834 20.5779 1.44294 3.11898 
13 1 1 -0.834 5.97636 12.2997 80.3533 
14 1 1 -0.834 6.55932 7.11344 49.8228 
15 1 1 -0.834 2.39217 18.9559 23.6894 
16 1 1 -0.834 7.6432 5.36965 59.053 
17 1 1 -0.834 19.0024 23.679 3.25012 
18 1 1 -0.834 10.598 22.2474 35.8009 
19 1 1 -0.834 5.84578 21.2796 15.0069 
20 1 1 -0.834 23.0251 19.7264 57.1766 
21 1 1 -0.834 10.2137 15.0052 9.62211 
22 1 1 -0.834 1.3816 19.7074 1.62561 
23 1 1 -0.834 10.3218 23.9118 66.6925 
24 1 1 -0.834 16.3946 19.8152 53.8724 
25 1 1 -0.834 13.8107 22.0363 70.793 
26 1 1 -0.834 4.09315 16.7113 24.3508 
27 1 1 -0.834 12.5245 4.42956 0.672357 
28 1 1 -0.834 6.43012 20.6817 65.9005 
29 1 1 -0.834 0.127894 11.4551 82.3843 
30 1 1 -0.834 16.6182 12.5491 74.4985 
31 1 1 -0.834 7.24965 0.597644 47.3065 
32 1 1 -0.834 7.28488 19.9003 48.5331 
33 1 1 -0.834 7.30787 23.0413 51.8845 
34 1 1 -0.834 15.9108 15.2586 66.0186 
35 1 1 -0.834 2.34724 15.1754 64.8879 
36 1 1 -0.834 0.856177 1.40136 44.5283 
37 1 1 -0.834 18.9404 17.3626 63.8258 
38 1 1 -0.834 16.1832 4.51425 46.1904 
39 1 1 -0.834 24.2028 5.11434 59.5051 
40 1 1 -0.834 5.36255 3.06003 70.8846 
41 1 1 -0.834 18.6531 9.5542 56.7278 
42 1 1 -0.834 12.0128 21.3135 42.6257 
43 1 1 -0.834 7.69813 17.7795 78.685 
44 1 1 -0.834 19.6968 23.4774 73.3688 
45 1 1 -0.834 6.24476 21.4515 78.9739 
46 1 1 -0.834 22.7454 8.21373 45.3315 
47 1 1 -0.834 0.505929 9.89269 43.9754 
48 1 1 -0.834 17.0826 12.7927 33.7629 
49 1 1 -0.834 3.90119 8.11156 33.9643 
50 1 1 -0.834 10.8628 12.7575 43.6214 
51 1 1 -0.834 8.16786 12.1737 43.0893 
52 1 1 -0.834 21.173 10.4668 56.4561 
53 1 1 -0.834 23.2293 1.38949 7.12898 
54 1 1 -0.834 3.08031 12.1008 56.5832 
55 1 1 -0.834 9.10548 22.1605 64.9901 
56 1 1 -0.834 14.15 22.1954 66.3152 
57 1 1 -0.834 21.8768 2.33614 58.3192 
58 1 1 -0.834 10.0298 19.7107 12.0796 
59 1 1 -0.834 18.0134 15.0042 73.7663 
60 1 1 -0.834 11.7388 9.68577 60.6518 
61 1 1 -0.834 18.538 13.2699 46.7605 
62 1 1 -0.834 12.759 8.50337 75.9931 
63 1 1 -0.834 2.81521 23.8256 34.5882 
64 1 1 -0.834 9.60782 11.3162 61.028 
65 1 1 -0.834 10.6291 7.69482 23.6519 
66 1 1 -0.834 8.74726 13.9517 2.86164 
67 1 1 -0.834 17.809 2.13328 24.9027 
68 1 1 -0.834 12.013 7.05793 78.368 
69 1 1 -0.834 23.2648 18.9904 27.6733 
70 1 1 -0.834 2.68581 7.10334 77.1735 
71 1 1 -0.834 11.3718 11.9671 0.792362 
72 1 1 -0.834 14.1843 22.6833 51.3643 
73 1 1 -0.834 10.9035 5.07741 24.0381 
74 1 1 -0.834 17.137 10.176 37.5631 
75 1 1 -0.834 15.3662 4.83579 80.8954 
76 1 1 -0.834 12.5004 6.64192 73.9641 
77 1 1 -0.834 11.9144 7.18653 26.0322 
78 1 1 -0.834 11.7566 12.6485 66.0488 
79 1 1 -0.834 10.6084 17.4587 53.0201 
80 1 1 -0.834 0.530755 11.5339 41.3528 
81 1 1 -0.834 9.66751 12.4297 71.1043 
82 1 1 -0.834 16.5616 11.138 72.195 
83 1 1 -0.834 12.247 5.49559 80.8761 
84 1 1 -0.834 8.22182 7.86684 60.9282 
85 1 1 -0.834 8.89462 6.19178 72.5377 
86 1 1 -0.834 12.2313 4.31833 61.7775 
87 1 1 -0.834 2.45723 16.6683 73.4289 
88 1 1 -0.834 2.78937 6.42597 67.1386 
89 1 1 -0.834 12.2042 10.0917 31.366 
90 1 1 -0.834 23.936 22.9067 52.4672 
91 1 1 -0.834 0.667137 12.9842 85.7419 
92 1 1 -0.834 23.5031 0.546446 46.5169 
93 1 1 -0.834 20.704 22.1036 52.2187 
94 1 1 -0.834 9.93618 18.1827 49.0174 
95 1 1 -0.834 12.3953 23.4612 40.4334 
96 1 1 -0.834 14.3548 18.9425 65.5536 
97 1 1 -0.834 15.2167 15.1817 72.0347 
98 1 1 -0.834 20.9606 2.70709 46.3813 
99 1 1 -0.834 0.130847 14.4959 73.0578 
100 1 1 -0.834 16.0482 7.6192 84.6356 
101 1 1 -0.834 2.4437 14.3486 71.2321 
102 1 1 -0.834 6.95801 4.01564 47.7706 
103 1 1 -0.834 0.247155 12.2957 50.6246 
104 1 1 -0.834 2.1432 22.4681 56.9117 
105 1 1 -0.834 6.76897 1.01587 69.4375 
106 1 1 -0.834 4.79654 23.3527 62.0494 
107 1 1 -0.834 20.9149 13.9996 39.1221 
108 1 1 -0.834 11.2327 13.1121 32.4248 
109 1 1 -0.834 12.0554 7.17113 65.3651 
110 1 1 -0.834 6.5582 9.41019 4.23513 
111 1 1 -0.834 6.08172 9.96084 45.3429 
112 1 1 -0.834 5.11641 14.1555 63.5015 
113 1 1 -0.834 19.2214 4.7821 22.0663 
114 1 1 -0.834 14.0939 0.0439103 68.2386 
115 1 1 -0.834 13.5157 14.4272 67.3623 
116 1 1 -0.834 7.79353 20.5959 45.1171 
117 1 1 -0.834 19.9877 14.4693 64.2452 
118 1 1 -0.834 10.8812 22.3355 54.0081 
119 1 1 -0.834 0.865476 23.7903 59.7816 
120 1 1 -0.834 17.9597 17.9491 73.1034 
121 1 1 -0.834 10.1227 18.3665 45.8266 
122 1 1 -0.834 23.9221 6.8288 70.058 
123 1 1 -0.834 5.79759 18.8244 19.2956 
124 1 1 -0.834 18.2652 9.45439 61.2678 
125 1 1 -0.834 10.8528 15.7778 68.6367 
126 1 1 -0.834 17.0751 16.3437 62.2491 
127 1 1 -0.834 18.9455 10.6243 80.2136 
128 1 1 -0.834 8.71858 8.49872 64.298 
129 1 1 -0.834 14.7231 4.27204 75.8021 
130 1 1 -0.834 3.80861 23.1944 50.0043 
131 1 1 -0.834 23.7551 7.0961 80.2384 
132 1 1 -0.834 16.1032 15.602 48.7454 
133 1 1 -0.834 14.2861 12.8941 76.235 
134 1 1 -0.834 15.4452 10.6562 32.9279 
135 1 1 -0.834 17.9081 9.4271 77.0726 
136 1 1 -0.834 15.8725 20.2913 9.52345 
137 1 1 -0.834 11.1864 9.75982 63.9058 
138 1 1 -0.834 8.88167 1.06446 79.5447 
139 1 1 -0.834 19.6237 9.1215 72.0002 
140 1 1 -0.834 14.1246 11.3207 9.51022 
141 1 1 -0.834 24.1724 21.9809 48.193 
142 1 1 -0.834 7.65061 2.23137 33.0548 
143 1 1 -0.834 6.04334 9.46236 60.1642 
144 1 1 -0.834 4.01342 10.7595 43.8689 
145 1 1 -0.834 4.31456 2.29894 77.2973 
146 1 1 -0.834 0.571469 9.7959 72.81 
147 1 1 -0.834 3.8288 13.7421 23.2802 
148 1 1 -0.834 1.10205 13.8213 23.3412 
149 1 1 -0.834 15.2409 3.4658 65.3963 
150 1 1 -0.834 6.10376 12.3353 58.2252 
151 1 1 -0.834 17.3705 23.4312 25.1022 
152 1 1 -0.834 21.6742 10.8181 62.0253 
153 1 1 -0.834 19.9162 21.6533 71.3761 
154 1 1 -0.834 18.6018 16.6878 10.0394 
155 1 1 -0.834 17.2467 20.3436 66.8062 
156 1 1 -0.834 16.4926 2.171 22.433 
157 1 1 -0.834 4.66928 9.56376 75.4384 
158 1 1 -0.834 10.9981 11.6115 57.2674 
159 1 1 -0.834 9.28293 1.82868 65.2739 
160 1 1 -0.834 3.49073 0.152554 79.7384 
161 1 1 -0.834 10.1815 22.0124 44.9364 
162 1 1 -0.834 9.3545 5.78165 26.4497 
163 1 1 -0.834 15.8261 18.015 31.3557 
164 1 1 -0.834 14.778 3.00367 40.6451 
165 1 1 -0.834 14.9163 14.3733 9.29142 
166 1 1 -0.834 8.72795 19.5029 60.292 
167 1 1 -0.834 0.883084 13.1631 63.6872 
168 1 1 -0.834 8.07963 10.6239 85.3976 
169 1 1 -0.834 11.5858 20.9917 47.3499 
170 1 1 -0.834 5.26057 8.34905 72.8126 
171 1 1 -0.834 0.741566 13.4671 80.8629 
172 1 1 -0.834 12.7421 23.6517 73.7411 
173 1 1 -0.834 2.06506 6.02525 31.1735 
174 1 1 -0.834 17.3155 15.6852 76.3984 
175 1 1 -0.834 2.00521 2.14289 33.0651 
176 1 1 -0.834 17.2287 6.8771 49.5128 
177 1 1 -0.834 9.03176 6.72467 47.6615 
178 1 1 -0.834 6.95746 12.3831 27.8297 
179 1 1 -0.834 8.98219 22.7033 62.0457 
180 1 1 -0.834 20.2674 24.1357 42.7457 
181 1 1 -0.834 22.2286 13.7321 52.1256 
182 1 1 -0.834 9.05027 1.52436 67.9116 
183 1 1 -0.834 4.74556 10.1752 66.6383 
184 1 1 -0.834 11.1654 17.9492 14.4866 
185 1 1 -0.834 11.199 0.191381 63.7344 
186 1 1 -0.834 1.65157 17.8455 66.9521 
187 1 1 -0.834 0.666718 19.0809 58.6816 
188 1 1 -0.834 22.3726 9.97215 53.749 
189 1 1 -0.834 3.56977 2.70678 28.482 
190 1 1 -0.834 13.3262 16.8014 69.0705 
191 1 1 -0.834 13.5766 22.3838 14.8653 
192 1 1 -0.834 21.5507 5.36264 59.3353 
193 1 1 -0.834 19.8918 16.1216 34.2395 
194 1 1 -0.834 17.4481 14.0269 60.765 
195 1 1 -0.834 20.0183 3.37828 68.8826 
196 1 1 -0.834 9.26638 12.307 52.1798 
197 1 1 -0.834 10.9201 18.3876 17.1803 
198 1 1 -0.834 16.4901 23.9412 74.9984 
199 1 1 -0.834 11.4085 7.42532 45.6319 
200 1 1 -0.834 1.68746 4.20159 68.0927 
201 1 1 -0.834 13.5332 14.6347 49.2943 
202 1 1 -0.834 11.3444 20.0949 57.7059 
203 1 1 -0.834 16.2691 9.01057 53.4248 
204 1 1 -0.834 8.92736 16.289 14.8333 
205 1 1 -0.834 16.1917 14.7719 12.464 
206 1 1 -0.834 23.9814 21.2492 5.83583 
207 1 1 -0.834 1.36706 19.0564 26.1969 
208 1 1 -0.834 9.05821 21.4399 82.805 
209 1 1 -0.834 19.6279 5.76947 38.1462 
210 1 1 -0.834 4.33694 1.86254 51.1287 
211 1 1 -0.834 22.223 11.1056 67.2019 
212 1 1 -0.834 17.1153 22.4573 71.3925 
213 1 1 -0.834 21.0805 18.5092 58.9539 
214 1 1 -0.834 23.863 16.1404 54.4206 
215 1 1 -0.834 13.9817 11.412 5.50258 
216 1 1 -0.834 0.438345 20.9549 69.5735 
217 1 1 -0.834 14.8521 7.90881 65.5567 
218 1 1 -0.834 7.27794 20.1469 12.436 
219 1 1 -0.834 14.5336 9.7137 69.8114 
220 1 1 -0.834 16.3272 14.9223 44.7697 
221 1 1 -0.834 24.2095 12.3401 45.0143 
222 1 1 -0.834 5.80298 19.6679 52.483 
223 1 1 -0.834 15.1634 7.33008 82.0048 
224 1 1 -0.834 8.70587 18.8744 18.7937 
225 1 1 -0.834 16.5876 23.8258 51.9814 
226 1 1 -0.834 5.08256 17.9574 83.3527 
227 1 1 -0.834 23.0726 14.6471 84.6663 
228 1 1 -0.834 23.5611 11.3352 79.5506 
229 1 1 -0.834 23.9098 14.6436 67.8373 
230 1 1 -0.834 3.72679 5.96165 54.7855 
231 1 1 -0.834 1.22595 21.6232 26.7098 
232 1 1 -0.834 22.0659 13.8026 56.9213 
233 1 1 -0.834 18.7894 10.5785 69.978 
234 1 1 -0.834 24.0279 23.5872 57.3533 
235 1 1 -0.834 10.8485 2.80751 59.3625 
236 1 1 -0.834 10.7147 6.69052 57.4123 
237 1 1 -0.834 18.6667 3.67962 73.0982 
238 1 1 -0.834 14.2738 1.2298 17.2216 
239 1 1 -0.834 23.2279 23.3634 76.1873 
240 1 1 -0.834 8.27544 4.06688 43.6616 
241 1 1 -0.834 20.2818 6.31469 47.9921 
242 1 1 -0.834 9.13737 12.8871 45.8757 
243 1 1 -0.834 14.4397 17.577 73.1711 
244 1 1 -0.834 5.35615 10.0657 25.9394 
245 1 1 -0.834 4.66327 14.6214 74.412 
246 1 1 -0.834 19.7831 17.3967 78.4657 
247 1 1 -0.834 16.117 1.35015 60.7826 
248 1 1 -0.834 20.9187 7.09439 61.7649 
249 1 1 -0.834 0.167917 20.4702 76.4998 
250 1 1 -0.834 23.0245 24.24 63.0887 
251 1 1 -0.834 3.87656 6.01684 62.6104 
252 1 1 -0.834 0.536042 20.5477 60.9016 
253 1 1 -0.834 16.7257 24.2995 55.0034 
254 1 1 -0.834 22.4989 1.18434 43.6031 
255 1 1 -0.834 6.21996 12.2756 65.0421 
256 1 1 -0.834 20.0226 22.6525 78.7118 
257 1 1 -0.834 24.2133 3.16483 66.05 
258 1 1 -0.834 17.4539 10.1975 15.4338 
259 1 1 -0.834 1.35562 0.862749 78.0007 
260 1 1 -0.834 1.02825 18.7197 46.5261 
261 1 1 -0.834 12.5283 16.1659 71.8765 
262 1 1 -0.834 6.6978 13.8888 72.4441 
263 1 1 -0.834 11.6795 11.0831 25.1508 
264 1 1 -0.834 1.07055 6.24542 47.714 
265 1 1 -0.834 18.2025 20.2352 63.81 
266 1 1 -0.834 20.1068 6.98265 67.5195 
267 1 1 -0.834 2.79426 23.8196 31.7566 
268 1 1 -0.834 16.174 16.9767 54.8215 
269 1 1 -0.834 5.1514 6.5786 76.1341 
270 1 1 -0.834 12.8513 12.6996 47.2566 
271 1 1 -0.834 11.2784 0.0244528 59.7251 
272 1 1 -0.834 12.8271 1.27094 48.9036 
273 1 1 -0.834 13.727 16.3199 53.1183 
274 1 1 -0.834 15.0466 4.08851 17.0408 
275 1 1 -0.834 1.57818 19.3458 78.8272 
276 1 1 -0.834 12.7947 14.9771 7.13134 
277 1 1 -0.834 2.85381 11.6529 70.5795 
278 1 1 -0.834 1.03198 22.6021 29.2938 
279 1 1 -0.834 0.536251 14.0821 56.2984 
280 1 1 -0.834 1.00567 4.2926 12.3563 
281 1 1 -0.834 22.0299 3.43124 41.4018 
282 1 1 -0.834 15.5787 10.9209 77.6664 
283 1 1 -0.834 22.6882 20.5359 71.1576 
284 1 1 -0.834 11.2915 1.49977 44.1136 
285 1 1 -0.834 1.03224 15.3267 47.5471 
286 1 1 -0.834 22.1414 18.7592 65.6094 
287 1 1 -0.834 11.282 1.0327 51.2865 
288 1 1 -0.834 0.749828 20.4138 55.5816 
289 1 1 -0.834 11.2332 8.43116 41.8235 
290 1 1 -0.834 17.1824 16.8531 33.7528 
291 1 1 -0.834 17.1658 23.2409 84.8373 
292 1 1 -0.834 15.5023 14.3455 52.6174 
293 1 1 -0.834 6.04167 12.9892 18.7561 
294 1 1 -0.834 1.77673 19.4658 82.3136 
295 1 1 -0.834 3.46444 21.7807 71.3343 
296 1 1 -0.834 9.78287 10.8529 78.3731 
297 1 1 -0.834 1.73093 14.2784 58.6974 
298 1 1 -0.834 4.41585 21.3039 74.1284 
299 1 1 -0.834 6.93409 21.2246 61.1167 
300 1 1 -0.834 17.0245 13.1209 37.989 
301 1 1 -0.834 19.7443 18.2971 31.9171 
302 1 1 -0.834 4.56732 0.83365 60.0815 
303 1 1 -0.834 18.4624 13.1875 66.1586 
304 1 1 -0.834 6.08007 13.4619 44.1564 
305 1 1 -0.834 4.61916 14.4095 69.4818 
306 1 1 -0.834 14.9246 8.50096 55.8542 
307 1 1 -0.834 4.84789 1.29455 13.4123 
308 1 1 -0.834 9.45996 3.56732 69.856 
309 1 1 -0.834 13.3738 1.00188 65.5658 
310 1 1 -0.834 9.60453 4.57877 49.2175 
311 1 1 -0.834 4.954 12.8909 26.0327 
312 1 1 -0.834 0.975266 23.5063 4.63994 
313 1 1 -0.834 13.8285 5.07846 63.9195 
314 1 1 -0.834 16.8461 12.3554 68.9063 
315 1 1 -0.834 20.8838 15.8433 73.3852 
316 1 1 -0.834 7.93587 9.73892 72.9503 
317 1 1 -0.834 6.99392 23.9317 55.7083 
318 1 1 -0.834 11.079 7.70345 71.7988 
319 1 1 -0.834 14.5581 4.80524 43.0903 
320 1 1 -0.834 22.4373 13.5201 48.687 
321 1 1 -0.834 4.96499 9.83295 57.1764 
322 1 1 -0.834 20.1747 16.9695 43.5133 
323 1 1 -0.834 8.89383 1.70441 62.1303 
324 1 1 -0.834 1.32903 5.73629 37.6601 
325 1 1 -0.834 10.2764 6.08967 43.1543 
326 1 1 -0.834 6.78258 11.6096 74.752 
327 1 1 -0.834 21.3624 8.4531 16.8773 
328 1 1 -0.834 20.7666 21.7195 32.1548 
329 1 1 -0.834 21.3765 12.1247 17.8758 
330 1 1 -0.834 19.291 22.6343 67.1846 
331 1 1 -0.834 2.06358 9.83556 76.3401 
332 1 1 -0.834 13.9682 21.2061 53.626 
333 1 1 -0.834 9.36123 9.42992 43.8985 
334 1 1 -0.834 6.33934 4.87647 55.766 
335 1 1 -0.834 7.24868 16.6805 55.3196 
336 1 1 -0.834 19.0382 0.871236 63.7681 
337 1 1 -0.834 17.3158 21.7279 46.257 
338 1 1 -0.834 0.606156 1.43443 70.3868 
339 1 1 -0.834 10.4005 17.0063 11.8784 
340 1 1 -0.834 19.1427 0.0109377 70.0282 
341 1 1 -0.834 12.2831 6.0628 51.3082 
342 1 1 -0.834 12.4399 0.977985 23.6905 
343 1 1 -0.834 20.6046 19.5199 3.36456 
344 1 1 -0.834 17.0822 3.5105 67.2977 
345 1 1 -0.834 20.2902 9.68578 64.1592 
346 1 1 -0.834 5.3472 3.07013 45.5059 
347 1 1 -0.834 23.0722 14.5555 70.804 
348 1 1 -0.834 23.4146 13.9564 42.7621 
349 1 1 -0.834 3.50484 8.64508 55.0451 
350 1 1 -0.834 23.1503 23.1053 73.1468 
351 1 1 -0.834 9.66633 20.395 67.623 
352 1 1 -0.834 12.03 17.4616 9.56743 
353 1 1 -0.834 4.85047 23.0803 46.2339 
354 1 1 -0.834 15.5246 1.16146 63.707 
355 1 1 -0.834 13.5369 11.6373 72.4335 
356 1 1 -0.834 10.9445 21.4809 59.9331 
357 1 1 -0.834 12.0623 3.46179 52.3211 
358 1 1 -0.834 7.44611 12.1291 47.9652 
359 1 1 -0.834 17.5085 7.28139 78.756 
360 1 1 -0.834 2.44843 15.7099 83.2403 
361 1 1 -0.834 7.12195 8.30869 31.4887 
362 1 1 -0.834 18.9525 23.0316 28.9494 
363 1 1 -0.834 0.667665 17.7243 18.4919 
364 1 1 -0.834 7.50927 4.82671 31.7893 
365 1 1 -0.834 0.278909 3.10506 72.5871 
366 1 1 -0.834 18.0072 14.3516 51.2367 
367 1 1 -0.834 6.8436 1.68941 37.7489 
368 1 1 -0.834 23.2405 14.8489 19.0948 
369 1 1 -0.834 1.82081 2.39495 56.7019 
370 1 1 -0.834 1.89278 12.734 48.1299 
371 1 1 -0.834 8.73943 1.97175 49.2691 
372 1 1 -0.834 11.3185 12.5573 69.053 
373 1 1 -0.834 21.4138 24.1425 5.54845 
374 1 1 -0.834 15.6465 19.8667 33.8988 
375 1 1 -0.834 13.6994 6.98497 22.9103 
376 1 1 -0.834 13.1924 4.76807 25.5012 
377 1 1 -0.834 20.8299 17.0934 48.3789 
378 1 1 -0.834 19.8098 0.0409656 48.7674 
379 1 1 -0.834 1.16385 9.2283 79.13 
380 1 1 -0.834 6.54575 16.3164 71.1501 
381 1 1 -0.834 17.882 5.70182 68.5694 
382 1 1 -0.834 13.4502 14.8606 57.5139 
383 1 1 -0.834 12.6569 19.1556 44.2958 
384 1 1 -0.834 2.61935 15.9452 40.9282 
385 1 1 -0.834 10.266 15.2929 47.0821 
386 1 1 -0.834 1.32998 23.2478 70.4428 
387 1 1 -0.834 3.94965 10.4092 48.4162 
388 1 1 -0.834 4.62632 11.4952 54.2683 
389 1 1 -0.834 21.2129 7.3204 57.3464 
390 1 1 -0.834 22.9993 19.775 30.2768 
391 1 1 -0.834 2.82474 13.2572 50.7913 
392 1 1 -0.834 13.2166 17.2908 61.3001 
393 1 1 -0.834 20.6417 9.95734 51.8113 
394 1 1 -0.834 4.99052 1.68329 31.3059 
395 1 1 -0.834 3.45628 3.29758 4.24542 
396 1 1 -0.834 3.98114 4.32531 57.0891 
397 1 1 -0.834 15.5891 21.0447 64.2667 
398 1 1 -0.834 15.824 14.4686 31.4401 
399 1 1 -0.834 21.5519 19.8103 6.18086 
400 1 1 -0.834 7.39 23.5151 75.3117 
401 1 1 -0.834 20.1247 11.4829 39.6417 
402 1 1 -0.834 13.8069 14.0906 29.5982 
403 1 1 -0.834 6.94931 17.1013 48.5101 
404 1 1 -0.834 20.9829 19.0343 45.0505 
405 1 1 -0.834 20.6374 15.1656 77.2177 
406 1 1 -0.834 0.153003 6.91872 35.3389 
407 1 1 -0.834 8.96043 7.43777 0.472665 
408 1 1 -0.834 7.58155 3.89268 53.2078 
409 1 1 -0.834 1.03304 23.2665 62.4497 
410 1 1 -0.834 17.971 0.745494 66.9416 
411 1 1 -0.834 10.5357 6.024 59.9956 
412 1 1 -0.834 16.2179 12.3539 54.1007 
413 1 1 -0.834 21.5158 3.92191 53.1298 
414 1 1 -0.834 4.85005 16.2826 85.5684 
415 1 1 -0.834 18.5469 13.6844 11.6062 
416 1 1 -0.834 3.45324 19.7309 65.746 
417 1 1 -0.834 20.1017 14.0971 53.5029 
418 1 1 -0.834 9.54715 21.9621 10.6883 
419 1 1 -0.834 16.6396 7.13967 59.846 
420 1 1 -0.834 23.5276 17.0292 73.386 
421 1 1 -0.834 3.5788 14.6804 61.147 
422 1 1 -0.834 15.5036 7.76071 75.7871 
423 1 1 -0.834 11.0606 9.55945 66.983 
424 1 1 -0.834 2.49768 15.9206 79.6769 
425 1 1 -0.834 10.8766 4.35069 21.4338 
426 1 1 -0.834 18.3434 21.6483 53.8094 
427 1 1 -0.834 5.11569 10.2842 69.3089 
428 1 1 -0.834 17.1044 8.18103 17.9056 
429 1 1 -0.834 5.34411 9.81578 29.175 
430 1 1 -0.834 8.23926 20.1627 39.1945 
431 1 1 -0.834 7.68988 6.07632 29.2053 
432 1 1 -0.834 21.0752 7.84576 79.9033 
433 1 1 -0.834 13.434 21.1737 79.0129 
434 1 1 -0.834 5.9143 0.785393 63.5132 
435 1 1 -0.834 22.2015 21.843 42.8955 
436 1 1 -0.834 13.8969 1.76628 55.0928 
437 1 1 -0.834 4.86718 7.5461 51.738 
438 1 1 -0.834 7.68205 5.58392 78.5402 
439 1 1 -0.834 3.32451 5.39814 34.9925 
440 1 1 -0.834 8.93986 13.2433 74.1233 
441 1 1 -0.834 22.0759 3.74563 73.5284 
442 1 1 -0.834 1.20458 5.98376 65.0179 
443 1 1 -0.834 9.15655 20.8748 78.5844 
444 1 1 -0.834 14.9841 2.29227 57.9839 
445 1 1 -0.834 23.9766 3.85505 35.9947 
446 1 1 -0.834 9.26806 9.5343 52.0535 
447 1 1 -0.834 3.61629 21.7682 59.5053 
448 1 1 -0.834 20.4924 1.76717 65.929 
449 1 1 -0.834 6.11329 7.34254 1.23142 
450 1 1 -0.834 12.2667 15.6996 35.6452 
451 1 1 -0.834 21.1605 16.257 51.0924 
452 1 1 -0.834 0.104668 3.40335 46.8498 
453 1 1 -0.834 13.5493 10.6943 57.9671 
454 1 1 -0.834 15.5815 4.30744 20.8042 
455 1 1 -0.834 4.82304 5.13909 29.4164 
456 1 1 -0.834 9.19337 13.6883 67.5055 
457 1 1 -0.834 1.87745 15.6438 20.4829 
458 1 1 -0.834 15.7365 1.79823 52.9927 
459 1 1 -0.834 16.8532 13.3869 77.8828 
460 1 1 -0.834 2.01516 9.54805 66.5751 
461 1 1 -0.834 8.30682 5.67998 51.4802 
462 1 1 -0.834 11.9546 22.9754 57.3017 
463 1 1 -0.834 9.82534 18.6599 80.0037 
464 1 1 -0.834 13.273 17.0523 47.0841 
465 1 1 -0.834 5.09359 0.89287 34.8531 
466 1 1 -0.834 3.95853 4.01972 53.0101 
467 1 1 -0.834 6.68808 2.88555 60.6234 
468 1 1 -0.834 9.54249 9.37557 48.6715 
469 1 1 -0.834 20.3503 7.36136 50.6029 
470 1 1 -0.834 22.0059 7.7617 72.3067 
471 1 1 -0.834 2.58743 1.69911 49.0306 
472 1 1 -0.834 23.6627 10.5896 14.3006 
473 1 1 -0.834 5.83993 6.22253 67.394 
474 1 1 -0.834 15.674 22.4807 60.5599 
475 1 1 -0.834 0.296064 20.3222 43.1761 
476 1 1 -0.834 0.100195 11.5481 69.514 
477 1 1 -0.834 14.4489 20.3909 73.8773 
478 1 1 -0.834 19.4541 5.56111 19.5714 
479 1 1 -0.834 17.5463 20.1026 31.0218 
480 1 1 -0.834 0.0470608 6.3246 76.4053 
481 1 1 -0.834 1.70688 13.9338 17.9667 
482 1 1 -0.834 3.62622 19.3733 57.8442 
483 1 1 -0.834 24.225 15.671 51.8275 
484 1 1 -0.834 12.6848 24.2203 53.2911 
485 1 1 -0.834 19.8926 12.9305 61.9265 
486 1 1 -0.834 4.80364 3.78435 36.7656 
487 1 1 -0.834 12.0775 8.70952 55.8234 
488 1 1 -0.834 9.16034 4.39356 56.0077 
489 1 1 -0.834 15.0933 15.1886 63.4822 
490 1 1 -0.834 6.03805 7.62185 69.7927 
491 1 1 -0.834 20.3366 11.4039 10.7674 
492 1 1 -0.834 6.60095 23.3436 66.1287 
493 1 1 -0.834 14.1318 22.9035 55.853 
494 1 1 -0.834 7.15367 6.4834 24.8678 
495 1 1 -0.834 20.148 15.5869 70.7561 
496 1 1 -0.834 14.4151 19.7388 59.3252 
497 1 1 -0.834 9.65457 0.628788 37.6534 
498 1 1 -0.834 6.63812 22.5789 48.3452 
499 1 1 -0.834 12.0947 9.07067 50.074 
500 1 1 -0.834 20.2714 21.6895 1.66832 
501 1 1 -0.834 17.1774 4.13544 53.5094 
502 1 1 -0.834 23.5764 14.8981 75.6915 
503 1 1 -0.834 10.5799 4.81769 78.2057 
504 1 1 -0.834 20.7724 24.0598 24.2045 
505 1 1 -0.834 22.8718 7.67186 51.4894 
506 1 1 -0.834 7.22437 15.3062 46.0741 
507 1 1 -0.834 2.22552 10.6484 53.0382 
508 1 1 -0.834 21.2592 0.191654 56.6844 
509 1 1 -0.834 9.41413 13.9074 27.7411 
510 1 1 -0.834 23.2052 0.978168 4.01652 
511 1 1 -0.834 22.844 16.0133 46.4483 
512 1 1 -0.834 19.4119 13.4611 34.6543 
513 1 1 -0.834 15.4249 7.50281 20.8141 
514 1 1 -0.834 5.87445 20.1316 56.1063 
515 1 1 -0.834 1.33009 7.81637 11.8922 
516 1 1 -0.834 10.7543 20.0235 64.9115 
517 1 1 -0.834 15.5896 9.51726 42.5278 
518 1 1 -0.834 14.6661 9.7438 45.6818 
519 1 1 -0.834 9.46339 15.6589 49.7733 
520 1 1 -0.834 0.397585 16.7318 22.8303 
521 1 1 -0.834 14.7166 7.70055 78.7068 
522 1 1 -0.834 11.508 3.12214 55.1823 
523 1 1 -0.834 18.5472 1.61398 84.1016 
524 1 1 -0.834 6.40474 3.28139 74.3734 
525 1 1 -0.834 7.7045 18.7708 82.0153 
526 1 1 -0.834 13.8667 6.58288 86.27 
527 1 1 -0.834 8.27393 6.88923 44.8045 
528 1 1 -0.834 19.3502 11.7236 13.959 
529 1 1 -0.834 6.85533 16.6255 51.2368 
530 1 1 -0.834 1.78217 18.1668 43.9158 
531 1 1 -0.834 14.2714 2.42411 0.13566 
532 1 1 -0.834 12.7005 8.7337 0.976958 
533 1 1 -0.834 14.8062 20.7739 41.5361 
534 1 1 -0.834 13.0894 1.83205 61.2983 
535 1 1 -0.834 17.6296 12.2663 58.5108 
536 1 1 -0.834 3.48713 8.10223 64.4134 
537 1 1 -0.834 14.3475 11.8681 68.0275 
538 1 1 -0.834 15.9617 6.00582 55.5244 
539 1 1 -0.834 11.9985 4.65149 75.704 
540 1 1 -0.834 19.3142 4.96122 16.0359 
541 1 1 -0.834 8.14473 15.1177 62.0787 
542 1 1 -0.834 11.3459 14.4869 53.6086 
543 1 1 -0.834 11.6647 8.27375 28.9916 
544 1 1 -0.834 3.03141 8.35058 46.3358 
545 1 1 -0.834 13.4146 5.73776 69.3055 
546 1 1 -0.834 11.9552 0.255856 16.2162 
547 1 1 -0.834 5.24384 23.0417 36.5964 
548 1 1 -0.834 23.2466 5.95663 10.3069 
549 1 1 -0.834 18.6358 21.4782 61.0309 
550 1 1 -0.834 10.6009 6.25144 69.5787 
551 1 1 -0.834 23.352 22.424 30.8383 
552 1 1 -0.834 11.1018 19.493 62.2361 
553 1 1 -0.834 20.4549 9.82568 77.9827 
554 1 1 -0.834 12.5782 7.55699 62.5933 
555 1 1 -0.834 22.0975 5.09703 12.6489 
556 1 1 -0.834 21.9703 8.64087 68.3307 
557 1 1 -0.834 13.1155 12.6789 54.8193 
558 1 1 -0.834 5.42158 20.3151 63.3567 
559 1 1 -0.834 17.2468 22.9529 63.1463 
560 1 1 -0.834 17.5349 6.90822 62.2881 
561 1 1 -0.834 7.70224 20.9683 54.058 
562 1 1 -0.834 2.76803 6.12822 72.9446 
563 1 1 -0.834 4.65163 18.0328 54.7638 
564 1 1 -0.834 15.2986 24.0295 72.6352 
565 1 1 -0.834 3.47359 13.844 53.4613 
566 1 1 -0.834 22.3824 2.10483 48.8283 
567 1 1 -0.834 19.1035 11.024 50.0122 
568 1 1 -0.834 17.4641 0.245646 58.3002 
569 1 1 -0.834 17.1368 23.1888 43.5853 
570 1 1 -0.834 7.89798 6.04893 75.6466 
571 1 1 -0.834 15.8275 17.1104 68.1277 
572 1 1 -0.834 10.3026 11.9758 49.1715 
573 1 1 -0.834 2.79969 18.4486 52.1008 
574 1 1 -0.834 19.0931 19.3819 46.9904 
575 1 1 -0.834 18.2577 18.9584 8.25205 
576 1 1 -0.834 3.38739 11.2896 81.6267 
577 1 1 -0.834 8.4841 20.5291 57.7936 
578 1 1 -0.834 5.20369 11.6714 51.4702 
579 1 1 -0.834 12.993 4.56035 58.71 
580 1 1 -0.834 10.3139 5.78183 29.3909 
581 1 1 -0.834 4.29503 18.4765 42.9978 
582 1 1 -0.834 13.3186 17.2324 30.7953 
583 1 1 -0.834 9.4668 15.4163 42.5923 
584 1 1 -0.834 17.3864 14.8145 35.8636 
585 1 1 -0.834 10.525 20.6409 14.9684 
586 1 1 -0.834 1.76927 9.69439 39.3995 
587 1 1 -0.834 11.0647 10.4191 54.0343 
588 1 1 -0.834 21.3059 11.9346 69.7164 
589 1 1 -0.834 11.2039 23.2552 13.3982 
590 1 1 -0.834 1.76323 8.04665 69.0449 
591 1 1 -0.834 18.4267 5.08186 51.3051 
592 1 1 -0.834 21.2039 6.73082 64.4016 
593 1 1 -0.834 17.0736 6.3856 65.163 
594 1 1 -0.834 9.35419 18.7878 55.0943 
595 1 1 -0.834 11.9006 16.7019 76.0427 
596 1 1 -0.834 9.88876 15.3041 72.1946 
597 1 1 -0.834 5.86071 0.983666 53.5685 
598 1 1 -0.834 24.0122 12.2873 53.6263 
599 1 1 -0.834 24.3572 17.5918 70.7965 
600 1 1 -0.834 11.438 14.1292 75.7047 
601 1 1 -0.834 16.0809 19.8005 51.1737 
602 1 1 -0.834 8.91754 8.97738 70.0685 
603 1 1 -0.834 10.7503 13.2846 62.7429 
604 1 1 -0.834 8.13662 11.0362 30.2196 
605 1 1 -0.834 8.55508 10.0044 57.9115 
606 1 1 -0.834 10.6832 13.8029 5.67509 
607 1 1 -0.834 22.4775 4.271 76.4692 
608 1 1 -0.834 19.3304 19.4694 52.3377 
609 1 1 -0.834 2.54481 1.09116 63.4102 
610 1 1 -0.834 1.0518 8.15304 60.0934 
611 1 1 -0.834 13.6102 4.70073 55.8768 
612 1 1 -0.834 13.0412 14.1703 44.5511 
613 1 1 -0.834 22.6407 14.9239 21.6847 
614 1 1 -0.834 16.6389 1.67858 69.6547 
615 1 1 -0.834 3.88448 24.0785 65.6773 
616 1 1 -0.834 22.8686 23.8838 0.193745 
617 1 1 -0.834 19.7747 14.5635 9.00651 
618 1 1 -0.834 15.0473 2.20122 47.4254 
619 1 1 -0.834 3.62666 12.554 85.6166 
620 1 1 -0.834 15.9695 17.5817 10.4226 
621 1 1 -0.834 20.1118 1.57987 78.2437 
622 1 1 -0.834 23.632 13.0405 15.5112 
623 1 1 -0.834 17.5513 3.62431 79.7092 
624 1 1 -0.834 11.9848 19.5836 36.1555 
625 1 1 -0.834 3.08433 9.30823 50.8093 
626 1 1 -0.834 17.574 7.08936 70.9958 
627 1 1 -0.834 7.0949 23.9486 71.7946 
628 1 1 -0.834 19.9993 18.1607 26.5004 
629 1 1 -0.834 18.2298 1.74462 19.8913 
630 1 1 -0.834 23.5404 4.98272 55.9305 
631 1 1 -0.834 22.3583 21.8427 61.5649 
632 1 1 -0.834 21.9054 22.922 68.1064 
633 1 1 -0.834 20.5909 5.13934 44.7684 
634 1 1 -0.834 8.0368 8.79696 26.4761 
635 1 1 -0.834 2.21085 11.5006 74.1822 
636 1 1 -0.834 12.4565 16.0022 80.3097 
637 1 1 -0.834 18.6827 2.07633 51.0107 
638 1 1 -0.834 18.9047 11.4841 54.0338 
639 1 1 -0.834 1.79634 9.33445 14.994 
640 1 1 -0.834 7.08472 18 62.7149 
641 1 1 -0.834 17.8706 8.69915 43.8901 
642 1 1 -0.834 22.8664 20.9839 78.4362 
643 1 1 -0.834 21.3162 11.4709 74.9326 
644 1 1 -0.834 0.43528 16.742 77.0467 
645 1 1 -0.834 4.99672 23.2794 12.4408 
646 1 1 -0.834 14.433 11.4618 30.2255 
647 1 1 -0.834 11.0252 15.8944 32.956 
648 1 1 -0.834 0.139441 18.4318 84.7011 
649 1 1 -0.834 3.36763 17.4095 18.0357 
650 1 1 -0.834 14.2436 19.9605 56.6413 
651 1 1 -0.834 18.5321 17.1234 51.0732 
652 1 1 -0.834 19.4859 17.452 75.4488 
653 1 1 -0.834 6.21433 16.0148 76.7946 
654 1 1 -0.834 6.74133 13.6811 24.1413 
655 1 1 -0.834 2.85878 8.0967 8.99008 
656 1 1 -0.834 7.02979 20.5361 69.245 
657 1 1 -0.834 3.63001 20.2597 84.0967 
658 1 1 -0.834 2.18266 13.369 42.2998 
659 1 1 -0.834 6.45568 8.18135 65.6924 
660 1 1 -0.834 4.22469 17.8008 63.8494 
661 1 1 -0.834 17.4997 13.4275 8.16361 
662 1 1 -0.834 10.5853 9.70092 86.1508 
663 1 1 -0.834 9.76946 1.70879 14.6111 
664 1 1 -0.834 4.83665 18.6769 68.0719 
665 1 1 -0.834 16.3253 9.43332 57.9872 
666 1 1 -0.834 2.15002 3.01108 37.4597 
667 1 1 -0.834 10.0309 0.133461 74.8206 
668 1 1 -0.834 8.45658 21.8274 73.3288 
669 1 1 -0.834 13.9561 8.59461 27.7823 
670 1 1 -0.834 17.3024 15.6638 58.2166 
671 1 1 -0.834 11.8348 12.6529 8.86203 
672 1 1 -0.834 10.8903 23.0015 78.8255 
673 1 1 -0.834 13.8877 14.2877 78.9264 
674 1 1 -0.834 6.16264 24.2279 78.9593 
675 1 1 -0.834 22.3226 12.6474 64.5889 
676 1 1 -0.834 24.0593 16.4617 65.3147 
677 1 1 -0.834 23.2966 9.57634 11.7699 
678 1 1 -0.834 9.73281 2.65377 76.6067 
679 1 1 -0.834 23.4441 15.1845 81.981 
680 1 1 -0.834 16.3158 18.0551 44.9392 
681 1 1 -0.834 5.57011 17.1016 60.4235 
682 1 1 -0.834 5.83351 2.93344 80.0173 
683 1 1 -0.834 23.2139 18.3686 78.4571 
684 1 1 -0.834 8.15496 0.41068 16.4062 
685 1 1 -0.834 20.9467 14.7573 41.7297 
686 1 1 -0.834 2.78716 4.56158 49.1859 
687 1 1 -0.834 6.01075 7.23526 57.4129 
688 1 1 -0.834 8.80178 2.15622 57.6594 
689 1 1 -0.834 5.11895 24.1234 7.95306 
690 1 1 -0.834 3.12825 1.77836 67.3183 
691 1 1 -0.834 6.61107 7.89083 53.7801 
692 1 1 -0.834 13.9554 4.46534 78.4901 
693 1 1 -0.834 7.58644 18.2424 66.783 
694 1 1 -0.834 17.7928 19.5422 79.0388 
695 1 1 -0.834 13.2875 17.9121 34.2079 
696 1 1 -0.834 16.6479 22.3871 78.4127 
697 1 1 -0.834 1.97221 6.22561 45.0889 
698 1 1 -0.834 19.4369 15.9875 46.3016 
699 1 1 -0.834 18.34 10.0503 74.4188 
700 1 1 -0.834 0.935455 6.69931 14.2774 
701 1 1 -0.834 6.89032 11.9438 60.7693 
702 1 1 -0.834 14.0282 13.0865 11.9958 
703 1 1 -0.834 19.4429 3.61292 55.2722 
704 1 1 -0.834 10.3851 5.48891 86.1647 
705 1 1 -0.834 4.57648 14.7851 17.338 
706 1 1 -0.834 7.45927 18.6251 14.6492 
707 1 1 -0.834 0.0386016 20.1993 23.2821 
708 1 1 -0.834 23.5788 20.9801 50.8234 
709 1 1 -0.834 19.4904 1.62318 22.6184 
710 1 1 -0.834 2.6827 21.9861 43.2907 
711 1 1 -0.834 0.64088 4.98322 33.3022 
712 1 1 -0.834 13.5602 22.4499 48.6123 
713 1 1 -0.834 2.59404 8.43308 71.5919 
714 1 1 -0.834 2.72207 20.6327 47.6063 
715 1 1 -0.834 23.6114 18.9378 53.9918 
716 1 1 -0.834 23.8899 11.2086 56.4622 
717 1 1 -0.834 4.74637 9.71607 2.05739 
718 1 1 -0.834 24.0076 6.4778 16.9764 
719 1 1 -0.834 3.03932 0.797955 46.5478 
720 1 1 -0.834 1.13619 17.1052 49.7936 
721 1 1 -0.834 13.4372 3.48706 22.5095 
722 1 1 -0.834 12.9617 10.533 43.3496 
723 1 1 -0.834 4.63467 20.8055 44.8151 
724 1 1 -0.834 16.4318 22.6203 68.6382 
725 1 1 -0.834 22.8321 1.74504 68.5511 
726 1 1 -0.834 14.3982 17.0977 13.1181 
727 1 1 -0.834 7.69605 4.01977 65.8753 
728 1 1 -0.834 3.76302 22.5825 77.5312 
729 1 1 -0.834 12.5217 10.9562 27.7519 
730 1 1 -0.834 7.2471 13.1678 50.3594 
731 1 1 -0.834 0.760804 20.0095 64.0331 
732 1 1 -0.834 20.6598 3.74016 64.1675 
733 1 1 -0.834 14.2391 1.49528 71.0753 
734 1 1 -0.834 15.736 6.81082 44.8871 
735 1 1 -0.834 21.0212 13.8853 15.6927 
736 1 1 -0.834 8.82118 1.8242 73.1419 
737 1 1 -0.834 23.2203 18.4463 48.3113 
738 1 1 -0.834 20.3747 16.0366 61.8148 
739 1 1 -0.834 11.4024 14.0262 51.0441 
740 1 1 -0.834 8.45912 19.7401 42.669 
741 1 1 -0.834 9.18693 18.4243 36.2899 
742 1 1 -0.834 4.09466 21.8699 40.3763 
743 1 1 -0.834 17.7072 11.473 63.2379 
744 1 1 -0.834 22.8631 7.67788 41.2222 
745 1 1 -0.834 19.1873 21.5679 42.5119 
746 1 1 -0.834 2.41305 3.56137 45.2866 
747 1 1 -0.834 8.68858 6.37966 5.78579 
748 1 1 -0.834 22.3422 17.999 75.8192 
749 1 1 -0.834 12.708 15.0771 10.4772 
750 1 1 -0.834 9.40174 7.75659 77.2311 