ITEM: TIMESTEP
3500000
ITEM: NUMBER OF ATOMS
5487
ITEM: BOX BOUNDS pp pp pp
2.4900000000000000e-01 2.4248999999999999e+01
2.5950000000000001e-01 2.4259499999999999e+01
0.0000000000000000e+00 1.0536952658408562e+02
ITEM: ATOMS id mol type q x y z
1 1 2 0.417 10.7181 23.2511 58.4348
2 1 2 0.417 11.0749 22.8857 56.9977
3 1 5 -0.834 11.0201 23.6121 57.5858
4 2 2 0.417 20.8967 20.5473 46.4031
5 2 2 0.417 22.2145 21.1196 46.4011
6 2 5 -0.834 21.5314 20.9585 45.7693
7 3 2 0.417 8.51289 18.9425 69.8494
8 3 2 0.417 9.248 19.8434 70.9287
9 3 5 -0.834 8.44893 19.8345 70.2764
10 4 2 0.417 2.49958 7.05018 55.2385
11 4 2 0.417 3.5594 6.37102 54.2713
12 4 5 -0.834 2.72846 6.18201 54.8401
13 5 2 0.417 7.82062 11.6217 86.3924
14 5 2 0.417 6.43481 11.1084 85.9637
15 5 5 -0.834 7.24797 11.4426 85.618
16 6 2 0.417 10.9908 17.5872 55.7658
17 6 2 0.417 10.489 18.6858 56.5159
18 6 5 -0.834 10.606 18.4211 55.5958
19 7 2 0.417 9.37947 8.81467 54.3589
20 7 2 0.417 8.54237 7.5351 54.1791
21 7 5 -0.834 8.47559 8.48272 54.2366
22 8 2 0.417 13.5724 19.9852 31.4439
23 8 2 0.417 14.3368 18.8204 32.1478
24 8 5 -0.834 13.7261 19.0107 31.4115
25 9 2 0.417 12.1453 2.19983 9.5197
26 9 2 0.417 13.0531 1.23226 10.0448
27 9 5 -0.834 12.4831 1.9577 10.4083
28 10 2 0.417 22.7909 21.6832 48.744
29 10 2 0.417 21.624 22.5002 48.0818
30 10 5 -0.834 22.609 22.2156 47.966
31 11 2 0.417 4.46596 5.58397 46.901
32 11 2 0.417 5.70743 5.18034 46.1541
33 11 5 -0.834 4.71809 5.27161 46.0151
34 12 2 0.417 22.5613 18.529 59.9195
35 12 2 0.417 21.4625 18.183 60.8919
36 12 5 -0.834 21.8581 17.8793 60.0316
37 13 2 0.417 14.7709 10.0577 49.9203
38 13 2 0.417 14.6326 11.57 49.8321
39 13 5 -0.834 14.884 10.7925 49.3478
40 14 2 0.417 9.9012 4.94859 68.2362
41 14 2 0.417 9.56848 3.50349 68.293
42 14 5 -0.834 10.2456 4.05418 67.8771
43 15 2 0.417 11.6003 1.88211 11.93
44 15 2 0.417 10.204 2.25664 12.1479
45 15 5 -0.834 10.9017 1.7808 12.6427
46 16 2 0.417 5.69188 6.83467 69.7345
47 16 2 0.417 6.46307 7.71147 69.0176
48 16 5 -0.834 6.36273 6.7538 69.0676
49 17 2 0.417 22.5686 20.2733 65.6929
50 17 2 0.417 23.6991 21.2869 66.0292
51 17 5 -0.834 22.7193 21.0674 66.1845
52 18 2 0.417 17.3597 22.5445 91.3264
53 18 2 0.417 15.9935 23.0007 90.7282
54 18 5 -0.834 16.9477 23.2039 90.692
55 19 2 0.417 20.3459 22.4888 44.6674
56 19 2 0.417 18.9911 22.8499 45.0484
57 19 5 -0.834 19.6341 23.0126 44.3472
58 20 2 0.417 19.3469 15.129 82.9267
59 20 2 0.417 19.4353 15.8425 84.31
60 20 5 -0.834 18.9797 15.0264 83.8429
61 21 2 0.417 15.2216 21.6359 86.5502
62 21 2 0.417 14.8015 22.7452 87.4481
63 21 5 -0.834 15.5704 22.4062 86.9566
64 22 2 0.417 0.493304 19.2302 92.405
65 22 2 0.417 24.1641 17.6596 92.4717
66 22 5 -0.834 0.867981 18.3151 92.6152
67 23 2 0.417 20.0225 6.11803 37.3223
68 23 2 0.417 21.5506 6.22012 37.2414
69 23 5 -0.834 20.8058 5.53792 37.2927
70 24 2 0.417 5.6019 17.7138 74.605
71 24 2 0.417 6.15971 18.205 73.2219
72 24 5 -0.834 6.07446 17.3654 73.7881
73 25 2 0.417 17.0728 6.50113 52.9819
74 25 2 0.417 16.9104 6.31962 51.4485
75 25 5 -0.834 16.9969 5.83768 52.2691
76 26 2 0.417 22.4184 4.37779 42.0917
77 26 2 0.417 21.8814 4.88509 43.4126
78 26 5 -0.834 22.2567 5.19985 42.5723
79 27 2 0.417 10.0801 15.8366 73.1123
80 27 2 0.417 9.80407 14.6578 72.1686
81 27 5 -0.834 9.37116 15.189 72.818
82 28 2 0.417 22.9273 7.43722 50.0048
83 28 2 0.417 23.354 6.26197 49.1745
84 28 5 -0.834 22.5967 6.92759 49.2646
85 29 2 0.417 7.79525 9.62031 55.4912
86 29 2 0.417 8.5016 9.90663 56.6678
87 29 5 -0.834 7.65655 10.0917 56.3696
88 30 2 0.417 15.2297 16.1357 58.1178
89 30 2 0.417 15.4401 16.7905 56.8863
90 30 5 -0.834 15.055 15.9832 57.16
91 31 2 0.417 7.18253 23.4351 2.96845
92 31 2 0.417 6.86649 22.4049 3.9395
93 31 5 -0.834 6.78951 23.4113 3.84396
94 32 2 0.417 3.1802 17.7001 84.4047
95 32 2 0.417 4.20578 17.5852 83.3084
96 32 5 -0.834 4.1308 17.9401 84.2533
97 33 2 0.417 1.41226 16.4773 52.6939
98 33 2 0.417 2.16742 16.8569 53.9513
99 33 5 -0.834 2.31369 16.5868 53.018
100 34 2 0.417 22.4366 20.949 36.1265
101 34 2 0.417 22.7371 21.5449 34.7312
102 34 5 -0.834 23.1391 21.0163 35.4241
103 35 2 0.417 16.1093 10.1458 84.4845
104 35 2 0.417 16.68 9.60411 83.1812
105 35 5 -0.834 15.8348 9.63675 83.7075
106 36 2 0.417 22.9375 13.9142 42.0648
107 36 2 0.417 22.2276 12.929 43.0279
108 36 5 -0.834 22.1975 13.2868 42.1025
109 37 2 0.417 6.43759 10.0184 39.5562
110 37 2 0.417 6.83478 11.3693 39.7866
111 37 5 -0.834 6.58175 10.7701 39.0026
112 38 2 0.417 0.864417 0.941167 39.7515
113 38 2 0.417 24.1959 23.608 39.8088
114 38 5 -0.834 0.693721 24.2179 39.1943
115 39 2 0.417 11.1657 5.14672 61.5247
116 39 2 0.417 12.2978 5.37496 60.6095
117 39 5 -0.834 11.4884 4.8714 60.6103
118 40 2 0.417 18.1445 12.5667 1.83994
119 40 2 0.417 18.912 11.5456 2.59899
120 40 5 -0.834 18.1845 12.1684 2.72699
121 41 2 0.417 10.1386 3.49539 43.4276
122 41 2 0.417 10.8997 4.37778 44.3514
123 41 5 -0.834 10.9252 4.02827 43.4657
124 42 2 0.417 14.6082 0.301112 96.2552
125 42 2 0.417 15.9031 23.6931 95.5711
126 42 5 -0.834 15.5415 24.195 96.3691
127 43 2 0.417 2.17237 22.822 57.5267
128 43 2 0.417 3.12641 23.5265 58.5117
129 43 5 -0.834 2.98367 23.3784 57.5136
130 44 2 0.417 17.6508 21.4764 21.1454
131 44 2 0.417 17.0991 22.7686 20.4335
132 44 5 -0.834 17.1562 22.354 21.3388
133 45 2 0.417 10.0811 18.3365 8.71565
134 45 2 0.417 11.4254 17.7089 8.61321
135 45 5 -0.834 10.609 17.5618 9.08617
136 46 2 0.417 17.9191 21.087 72.6741
137 46 2 0.417 18.5391 22.0256 71.7182
138 46 5 -0.834 17.693 21.4941 71.828
139 47 2 0.417 16.8713 7.75227 76.3895
140 47 2 0.417 16.3967 6.37952 76.2711
141 47 5 -0.834 16.923 7.03559 75.7694
142 48 2 0.417 24.0795 1.43319 60.292
143 48 2 0.417 23.8039 23.963 60.2369
144 48 5 -0.834 24.182 0.657074 60.8508
145 49 2 0.417 10.5353 19.1585 72.9287
146 49 2 0.417 10.9632 19.9 71.7428
147 49 5 -0.834 10.1543 19.7041 72.2314
148 50 2 0.417 11.9674 22.9887 46.4403
149 50 2 0.417 10.788 22.9854 45.5988
150 50 5 -0.834 11.7311 22.997 45.5344
151 51 2 0.417 11.4643 6.46662 58.7805
152 51 2 0.417 10.0313 6.49009 58.5553
153 51 5 -0.834 10.7628 7.12171 58.6934
154 52 2 0.417 15.3651 3.21517 84.6535
155 52 2 0.417 16.4839 3.39233 83.7441
156 52 5 -0.834 15.6205 3.90878 83.9893
157 53 2 0.417 14.0561 18.3086 4.30242
158 53 2 0.417 14.2235 17.1455 5.04373
159 53 5 -0.834 14.1315 18.0951 5.21334
160 54 2 0.417 5.96323 10.9458 44.4619
161 54 2 0.417 6.60497 12.3343 44.6976
162 54 5 -0.834 6.28184 11.7459 43.9164
163 55 2 0.417 22.7021 3.57252 36.0172
164 55 2 0.417 21.3552 4.1517 36.0635
165 55 5 -0.834 21.7599 3.37636 35.6846
166 56 2 0.417 1.83621 17.0787 73.0913
167 56 2 0.417 1.93554 18.5959 73.1554
168 56 5 -0.834 1.51264 17.856 72.6166
169 57 2 0.417 17.0967 12.2098 36.971
170 57 2 0.417 18.0878 13.3414 37.0295
171 57 5 -0.834 17.8273 12.5161 37.5847
172 58 2 0.417 21.1127 0.635071 40.5913
173 58 2 0.417 21.1337 1.78762 39.6206
174 58 5 -0.834 21.279 0.836393 39.6454
175 59 2 0.417 21.3608 8.06648 34.5376
176 59 2 0.417 22.1768 7.61575 35.7522
177 59 5 -0.834 21.6644 8.34524 35.435
178 60 2 0.417 23.9749 8.76069 84.4748
179 60 2 0.417 1.02082 8.35673 85.4819
180 60 5 -0.834 0.534203 7.99013 84.7075
181 61 2 0.417 9.90966 21.7285 76.8615
182 61 2 0.417 10.0386 21.9447 78.2075
183 61 5 -0.834 10.0659 21.1772 77.6134
184 62 2 0.417 22.4151 3.21819 70.3775
185 62 2 0.417 22.8539 4.12896 69.2063
186 62 5 -0.834 22.0928 3.50879 69.4847
187 63 2 0.417 1.53595 14.2703 56.6081
188 63 2 0.417 1.14805 15.0702 57.9436
189 63 5 -0.834 0.98042 14.9887 56.9955
190 64 2 0.417 16.2979 1.43831 66.6632
191 64 2 0.417 15.725 1.08638 65.3785
192 64 5 -0.834 16.4788 0.872263 65.933
193 65 2 0.417 10.4449 15.7625 36.0286
194 65 2 0.417 9.02985 15.9636 36.4149
195 65 5 -0.834 9.49119 15.4739 35.706
196 66 2 0.417 22.3664 21.9765 91.3376
197 66 2 0.417 22.698 20.7748 90.6698
198 66 5 -0.834 22.1539 21.6423 90.5185
199 67 2 0.417 20.6343 5.09528 77.9049
200 67 2 0.417 21.493 5.63047 79.0058
201 67 5 -0.834 21.5171 5.40594 78.042
202 68 2 0.417 5.36375 15.5014 54.0274
203 68 2 0.417 5.67166 14.0419 54.2225
204 68 5 -0.834 5.51342 14.6961 53.5153
205 69 2 0.417 16.4245 5.32263 35.7204
206 69 2 0.417 15.6654 5.23637 34.4376
207 69 5 -0.834 16.0486 4.65127 35.048
208 70 2 0.417 20.1425 2.14574 68.6101
209 70 2 0.417 19.7443 1.23368 67.4974
210 70 5 -0.834 19.614 2.12896 67.7771
211 71 2 0.417 21.2259 14.4316 63.6854
212 71 2 0.417 21.1711 14.909 65.0894
213 71 5 -0.834 21.1639 15.2766 64.2367
214 72 2 0.417 13.7596 0.931318 87.5138
215 72 2 0.417 13.1085 1.33504 88.7577
216 72 5 -0.834 13.5986 0.632297 88.3625
217 73 2 0.417 7.85905 0.314538 91.71
218 73 2 0.417 6.92067 23.5247 90.8681
219 73 5 -0.834 7.12183 0.447514 91.0814
220 74 2 0.417 20.2524 1.12349 49.0869
221 74 2 0.417 20.0091 2.0208 47.8707
222 74 5 -0.834 20.7201 1.68734 48.4233
223 75 2 0.417 1.1684 0.785593 102.124
224 75 2 0.417 24.072 23.9655 102.582
225 75 5 -0.834 0.840248 0.326798 102.917
226 76 2 0.417 11.4365 7.47907 56.4544
227 76 2 0.417 11.6324 6.18634 56.1323
228 76 5 -0.834 11.5911 7.00305 55.6535
229 77 2 0.417 9.09682 10.0791 99.6727
230 77 2 0.417 7.9064 9.84378 100.538
231 77 5 -0.834 8.25587 10.502 99.9128
232 78 2 0.417 19.7522 23.7924 42.8692
233 78 2 0.417 19.0712 0.495247 41.6993
234 78 5 -0.834 19.925 0.334981 42.027
235 79 2 0.417 11.7629 1.62609 42.1972
236 79 2 0.417 11.9648 2.33639 43.4509
237 79 5 -0.834 12.3172 1.56828 42.9713
238 80 2 0.417 14.077 16.5329 63.2458
239 80 2 0.417 15.4579 16.2602 63.1164
240 80 5 -0.834 14.6218 16.0937 62.6203
241 81 2 0.417 6.38042 17.7501 53.8461
242 81 2 0.417 5.21863 17.555 54.7257
243 81 5 -0.834 5.49785 18.1718 53.9412
244 82 2 0.417 13.0234 20.8428 9.01336
245 82 2 0.417 13.5502 20.7007 7.5849
246 82 5 -0.834 13.7177 21.2465 8.3699
247 83 2 0.417 21.9415 4.1306 77.1032
248 83 2 0.417 21.8583 2.60222 77.2312
249 83 5 -0.834 22.4209 3.25882 76.8857
250 84 2 0.417 13.8844 12.692 67.245
251 84 2 0.417 13.1979 13.9198 67.4147
252 84 5 -0.834 13.2186 13.0595 67.8487
253 85 2 0.417 17.7761 12.4446 89.604
254 85 2 0.417 17.8984 13.8401 89.3019
255 85 5 -0.834 18.0591 13.2708 90.0331
256 86 2 0.417 19.4903 13.5045 29.0646
257 86 2 0.417 20.9199 13.2508 29.6749
258 86 5 -0.834 20.0036 12.895 29.6398
259 87 2 0.417 5.08572 18.7923 68.4372
260 87 2 0.417 5.06526 17.3543 68.8159
261 87 5 -0.834 5.01097 17.9357 68.0364
262 88 2 0.417 7.87813 3.39407 79.1373
263 88 2 0.417 8.55221 2.49526 78.2498
264 88 5 -0.834 8.62867 3.38747 78.5108
265 89 2 0.417 20.2325 7.78502 53.3796
266 89 2 0.417 21.6382 7.96901 53.4587
267 89 5 -0.834 21.0544 7.30511 53.2581
268 90 2 0.417 12.7023 10.07 83.8334
269 90 2 0.417 14.0719 10.2789 83.3039
270 90 5 -0.834 13.1152 10.5794 83.1474
271 91 2 0.417 17.3578 5.32499 43.2734
272 91 2 0.417 15.8876 5.32226 43.3467
273 91 5 -0.834 16.6139 5.45224 42.6634
274 92 2 0.417 17.4432 5.55484 41.1601
275 92 2 0.417 17.8953 6.87915 40.5114
276 92 5 -0.834 17.9605 5.8993 40.3873
277 93 2 0.417 6.65671 0.816482 89.4216
278 93 2 0.417 6.89875 24.1987 88.0733
279 93 5 -0.834 6.30808 0.849784 88.5213
280 94 2 0.417 14.2474 23.9651 69.6381
281 94 2 0.417 13.1665 0.587406 68.6813
282 94 5 -0.834 13.3414 0.362211 69.6352
283 95 2 0.417 7.8132 2.4806 35.6795
284 95 2 0.417 8.94014 1.80725 34.8147
285 95 5 -0.834 8.66715 2.6491 35.228
286 96 2 0.417 13.5607 3.9771 80.491
287 96 2 0.417 13.9943 5.01919 81.6202
288 96 5 -0.834 14.1544 4.72394 80.6476
289 97 2 0.417 6.92562 7.53678 86.4324
290 97 2 0.417 7.73134 6.36447 86.9228
291 97 5 -0.834 6.99446 6.59545 86.2544
292 98 2 0.417 16.7114 12.1121 66.4028
293 98 2 0.417 16.1993 13.5201 66.5748
294 98 5 -0.834 15.938 12.5884 66.7082
295 99 2 0.417 5.29282 5.1245 58.7066
296 99 2 0.417 4.7838 5.32495 57.3359
297 99 5 -0.834 4.48628 4.93527 58.2138
298 100 2 0.417 14.9185 17.9632 84.7069
299 100 2 0.417 14.0647 17.0194 83.8952
300 100 5 -0.834 14.2173 17.2698 84.798
301 101 2 0.417 4.78055 1.07268 1.22895
302 101 2 0.417 3.64388 0.475502 0.423012
303 101 5 -0.834 4.50373 0.952539 0.300856
304 102 2 0.417 1.53325 11.3049 36.9825
305 102 2 0.417 1.10532 12.2508 35.8427
306 102 5 -0.834 1.76896 12.2072 36.5592
307 103 2 0.417 2.52522 19.5477 89.5739
308 103 2 0.417 3.55835 18.653 90.3383
309 103 5 -0.834 3.41588 19.1804 89.519
310 104 2 0.417 16.5538 17.0519 78.7093
311 104 2 0.417 16.4668 16.671 80.1744
312 104 5 -0.834 16.9964 17.2101 79.6037
313 105 2 0.417 12.7033 22.9212 76.944
314 105 2 0.417 11.5306 23.6632 77.2681
315 105 5 -0.834 12.0699 23.4771 76.4797
316 106 2 0.417 0.72519 18.2331 46.4912
317 106 2 0.417 0.79695 19.566 47.283
318 106 5 -0.834 0.315363 18.6864 47.2744
319 107 2 0.417 6.37738 0.352356 82.5261
320 107 2 0.417 5.76644 23.5322 81.3563
321 107 5 -0.834 6.53781 24.0443 81.607
322 108 2 0.417 14.3172 11.4747 70.1791
323 108 2 0.417 13.6248 12.5959 69.7091
324 108 5 -0.834 14.0954 12.2988 70.5092
325 109 2 0.417 16.4224 4.65474 87.6093
326 109 2 0.417 15.1639 5.28903 88.1206
327 109 5 -0.834 15.5048 4.39333 87.7853
328 110 2 0.417 17.6808 14.6595 3.66099
329 110 2 0.417 17.5603 13.2181 3.99206
330 110 5 -0.834 17.3073 14.0724 4.36717
331 111 2 0.417 15.6958 14.2205 72.2538
332 111 2 0.417 15.0179 12.8679 72.0313
333 111 5 -0.834 15.7353 13.3053 72.5857
334 112 2 0.417 18.2128 18.1114 67.0958
335 112 2 0.417 17.8632 17.6694 68.5417
336 112 5 -0.834 17.8594 17.3826 67.6048
337 113 2 0.417 1.35336 2.91659 57.2613
338 113 2 0.417 0.484173 2.36964 58.4662
339 113 5 -0.834 0.566632 2.36005 57.4858
340 114 2 0.417 17.7994 9.08867 70.9723
341 114 2 0.417 17.3491 10.3579 71.64
342 114 5 -0.834 16.982 9.54106 71.139
343 115 2 0.417 16.1728 9.54581 76.7095
344 115 2 0.417 16.5144 9.49795 78.1286
345 115 5 -0.834 17.0158 9.46265 77.2615
346 116 2 0.417 21.2302 21.3256 37.6909
347 116 2 0.417 20.2208 20.3565 37.2801
348 116 5 -0.834 20.8572 20.9311 36.8508
349 117 2 0.417 5.5541 21.4432 11.3811
350 117 2 0.417 6.35385 21.7392 10.098
351 117 5 -0.834 5.92508 21.02 10.6293
352 118 2 0.417 3.27518 3.31132 28.5094
353 118 2 0.417 4.20884 3.19736 27.3178
354 118 5 -0.834 4.07535 2.81109 28.1845
355 119 2 0.417 11.9641 15.437 46.9458
356 119 2 0.417 11.4018 16.2862 45.8203
357 119 5 -0.834 12.286 15.9742 46.1751
358 120 2 0.417 3.19096 20.2667 56.4949
359 120 2 0.417 4.43852 20.8729 55.8673
360 120 5 -0.834 3.60372 20.3717 55.6465
361 121 2 0.417 14.3837 12.6524 62.2436
362 121 2 0.417 14.156 14.2633 62.135
363 121 5 -0.834 14.1334 13.3814 61.6241
364 122 2 0.417 17.4564 15.9062 91.8407
365 122 2 0.417 17.5162 14.5336 91.3771
366 122 5 -0.834 17.8154 15.0723 92.1265
367 123 2 0.417 19.1368 18.1433 88.5229
368 123 2 0.417 18.8794 18.1839 87.0271
369 123 5 -0.834 18.4588 17.9127 87.8329
370 124 2 0.417 1.02703 22.2861 85.5578
371 124 2 0.417 1.24515 21.8307 84.1486
372 124 5 -0.834 1.29142 21.491 85.0412
373 125 2 0.417 12.88 13.5933 38.6896
374 125 2 0.417 12.5215 12.4324 39.5366
375 125 5 -0.834 12.4832 12.7508 38.5775
376 126 2 0.417 13.1954 15.9156 65.7272
377 126 2 0.417 14.5506 15.3146 66.2877
378 126 5 -0.834 13.5604 15.3119 66.3657
379 127 2 0.417 0.374007 12.5828 64.1105
380 127 2 0.417 23.4405 13.7082 64.254
381 127 5 -0.834 23.4916 12.8731 63.8255
382 128 2 0.417 1.39325 14.0598 39.9195
383 128 2 0.417 2.32621 13.1425 40.6619
384 128 5 -0.834 1.55933 13.7151 40.8201
385 129 2 0.417 11.5605 13.0306 67.1213
386 129 2 0.417 10.2647 12.8752 67.9056
387 129 5 -0.834 10.5675 13.0828 66.958
388 130 2 0.417 9.59591 10.5361 49.5891
389 130 2 0.417 11.023 10.7212 50.1202
390 130 5 -0.834 10.1366 11.1452 50.0419
391 131 2 0.417 16.564 12.6906 62.1575
392 131 2 0.417 18.06 12.844 61.9521
393 131 5 -0.834 17.1681 13.1587 61.5736
394 132 2 0.417 2.99164 15.1283 52.1856
395 132 2 0.417 4.25583 14.3937 52.446
396 132 5 -0.834 3.3904 14.2967 51.9606
397 133 2 0.417 5.14324 9.26432 86.8745
398 133 2 0.417 3.81641 9.96392 86.6853
399 133 5 -0.834 4.79002 10.1188 86.6525
400 134 2 0.417 7.33379 15.2409 43.2446
401 134 2 0.417 7.21966 14.1974 44.444
402 134 5 -0.834 7.81843 14.5795 43.7468
403 135 2 0.417 22.4502 16.1872 92.1288
404 135 2 0.417 23.5948 15.6873 93.0184
405 135 5 -0.834 23.3961 15.8726 92.0695
406 136 2 0.417 3.80527 2.23519 64.6782
407 136 2 0.417 4.35049 3.57475 64.3332
408 136 5 -0.834 4.55929 2.61487 64.2989
409 137 2 0.417 16.8522 22.4989 40.6357
410 137 2 0.417 16.4243 21.9183 41.9675
411 137 5 -0.834 16.9184 21.6846 41.1414
412 138 2 0.417 19.9186 13.8637 74.9806
413 138 2 0.417 19.0331 12.8653 75.7929
414 138 5 -0.834 19.0337 13.7539 75.3687
415 139 2 0.417 1.33113 16.3291 88.2518
416 139 2 0.417 2.52132 16.0303 87.3068
417 139 5 -0.834 1.53716 16.1232 87.338
418 140 2 0.417 15.1409 7.75755 46.7016
419 140 2 0.417 15.148 7.03406 45.2395
420 140 5 -0.834 15.3936 7.8959 45.7722
421 141 2 0.417 2.376 10.8017 91.0219
422 141 2 0.417 2.5453 11.8776 89.945
423 141 5 -0.834 2.3938 10.9104 90.1215
424 142 2 0.417 20.6984 16.1834 50.1912
425 142 2 0.417 21.7642 16.97 49.586
426 142 5 -0.834 21.6786 16.0892 49.979
427 143 2 0.417 16.735 17.6289 60.8237
428 143 2 0.417 16.5807 18.5301 59.4671
429 143 5 -0.834 16.8825 18.5683 60.3931
430 144 2 0.417 22.7883 11.93 34.6529
431 144 2 0.417 23.8652 11.0583 34.049
432 144 5 -0.834 23.7115 11.9739 34.3591
433 145 2 0.417 9.67056 1.36792 81.3234
434 145 2 0.417 10.9024 2.11182 81.876
435 145 5 -0.834 10.602 1.47047 81.1882
436 146 2 0.417 13.7554 18.3338 8.14512
437 146 2 0.417 13.237 18.1218 6.65334
438 146 5 -0.834 12.8986 18.3331 7.60442
439 147 2 0.417 13.843 2.66544 56.2498
440 147 2 0.417 15.2583 2.89068 56.2241
441 147 5 -0.834 14.4633 3.35775 56.4841
442 148 2 0.417 3.40901 6.79956 41.2031
443 148 2 0.417 4.44743 6.20107 41.9413
444 148 5 -0.834 4.21212 6.22781 41.0386
445 149 2 0.417 3.24593 2.40273 103.548
446 149 2 0.417 4.45259 1.55721 103.836
447 149 5 -0.834 4.04305 2.06453 103.129
448 150 2 0.417 22.094 22.9376 55.1436
449 150 2 0.417 21.8595 21.4659 54.7788
450 150 5 -0.834 21.8171 22.3972 54.4093
451 151 2 0.417 16.0096 15.9298 81.8574
452 151 2 0.417 15.4182 14.556 81.3205
453 151 5 -0.834 15.3118 15.5555 81.2273
454 152 2 0.417 1.76534 2.16859 6.0062
455 152 2 0.417 1.96615 3.03264 7.22777
456 152 5 -0.834 1.95241 2.11642 6.93907
457 153 2 0.417 15.3017 2.09006 34.7242
458 153 2 0.417 16.5636 2.78384 34.7731
459 153 5 -0.834 16.1229 2.09912 34.2463
460 154 2 0.417 10.1393 15.1545 40.5885
461 154 2 0.417 10.3346 16.5024 41.1685
462 154 5 -0.834 9.66689 15.9883 40.6537
463 155 2 0.417 23.8553 2.10617 53.7893
464 155 2 0.417 22.6917 2.00423 54.6819
465 155 5 -0.834 22.9446 1.72683 53.8236
466 156 2 0.417 10.0485 5.52222 39.1147
467 156 2 0.417 10.958 6.72446 39.4486
468 156 5 -0.834 10.5171 6.28617 38.7432
469 157 2 0.417 14.253 4.85685 83.8226
470 157 2 0.417 13.3528 5.86086 84.4811
471 157 5 -0.834 13.2951 5.25097 83.7374
472 158 2 0.417 12.6559 9.00463 38.2606
473 158 2 0.417 11.8752 8.33827 39.0757
474 158 5 -0.834 11.7099 8.96936 38.3886
475 159 2 0.417 9.48614 6.44422 22.9346
476 159 2 0.417 8.88052 7.59997 22.2508
477 159 5 -0.834 8.90673 7.18252 23.1142
478 160 2 0.417 2.17406 15.1469 60.4214
479 160 2 0.417 2.58134 16.0114 59.3248
480 160 5 -0.834 2.09767 15.1635 59.4253
481 161 2 0.417 17.3738 1.20008 86.2466
482 161 2 0.417 16.403 24.1449 86.8029
483 161 5 -0.834 16.4633 0.959549 86.1841
484 162 2 0.417 19.2681 8.5347 91.3164
485 162 2 0.417 19.6606 7.35988 90.5479
486 162 5 -0.834 19.3798 8.24119 90.424
487 163 2 0.417 7.71691 16.5779 63.1599
488 163 2 0.417 7.0436 15.8027 64.3079
489 163 5 -0.834 7.15585 16.7316 63.8801
490 164 2 0.417 2.63866 5.40918 91.2984
491 164 2 0.417 1.45483 6.22485 91.463
492 164 5 -0.834 2.38029 6.06819 91.8556
493 165 2 0.417 3.42362 0.758185 52.8678
494 165 2 0.417 4.63611 0.873749 52.1218
495 165 5 -0.834 3.80337 1.23103 52.0845
496 166 2 0.417 5.82088 8.32433 0.691245
497 166 2 0.417 7.14468 7.61225 1.09476
498 166 5 -0.834 6.21992 7.46791 0.789699
499 167 2 0.417 7.64148 10.4372 53.5068
500 167 2 0.417 6.46516 11.3414 53.6705
501 167 5 -0.834 6.97809 10.9912 52.9856
502 168 2 0.417 22.1056 12.884 49.688
503 168 2 0.417 22.1101 14.3196 49.466
504 168 5 -0.834 22.0976 13.4937 48.9818
505 169 2 0.417 13.4166 5.48208 41.6753
506 169 2 0.417 12.4299 4.49224 42.5513
507 169 5 -0.834 13.211 5.10865 42.6002
508 170 2 0.417 10.3663 17.0455 84.5661
509 170 2 0.417 9.15006 17.9337 84.4236
510 170 5 -0.834 9.99347 17.8433 84.9454
511 171 2 0.417 23.1809 23.6725 57.2828
512 171 2 0.417 23.598 0.968958 56.9051
513 171 5 -0.834 22.8961 0.347914 56.6478
514 172 2 0.417 3.74172 23.6363 70.9306
515 172 2 0.417 4.7314 0.722205 70.8434
516 172 5 -0.834 4.20721 24.1384 70.2627
517 173 2 0.417 18.4855 19.201 36.5568
518 173 2 0.417 18.1433 20.2263 37.6876
519 173 5 -0.834 18.2084 20.1039 36.7389
520 174 2 0.417 2.29797 17.7195 56.4245
521 174 2 0.417 1.45297 16.4447 56.2616
522 174 5 -0.834 2.16737 16.9726 55.7798
523 175 2 0.417 22.3336 9.47082 44.3355
524 175 2 0.417 23.0225 10.4517 43.7003
525 175 5 -0.834 22.6535 9.63569 43.4662
526 176 2 0.417 19.9814 9.99269 44.7499
527 176 2 0.417 18.6081 10.5776 44.6174
528 176 5 -0.834 19.5461 10.8367 44.599
529 177 2 0.417 17.6108 16.8873 63.6755
530 177 2 0.417 16.623 17.9917 63.9044
531 177 5 -0.834 16.8567 17.0997 64.2324
532 178 2 0.417 24.1111 17.9814 11.8034
533 178 2 0.417 1.14667 16.9516 11.4143
534 178 5 -0.834 0.800312 17.4138 12.1574
535 179 2 0.417 0.767484 22.6308 64.7564
536 179 2 0.417 2.0048 22.1023 65.5855
537 179 5 -0.834 1.02231 22.0691 65.5444
538 180 2 0.417 23.1433 8.03582 42.9645
539 180 2 0.417 23.0863 6.52029 42.7385
540 180 5 -0.834 23.7206 7.24692 42.7386
541 181 2 0.417 22.0508 9.1126 77.7569
542 181 2 0.417 23.6085 8.94084 78.0663
543 181 5 -0.834 22.7633 9.25414 78.4723
544 182 2 0.417 2.16032 7.76932 2.51424
545 182 2 0.417 3.04213 7.42557 1.44128
546 182 5 -0.834 2.43249 8.05176 1.65176
547 183 2 0.417 23.9957 15.8576 80.3991
548 183 2 0.417 0.426415 15.6084 78.8353
549 183 5 -0.834 0.652092 15.407 79.7419
550 184 2 0.417 6.24969 19.3971 80.834
551 184 2 0.417 5.69663 19.2614 82.1402
552 184 5 -0.834 6.38905 19.6999 81.7515
553 185 2 0.417 4.31675 6.17814 52.0167
554 185 2 0.417 4.77532 7.45566 52.7098
555 185 5 -0.834 4.68142 6.4945 52.8616
556 186 2 0.417 6.00165 13.4839 63.8384
557 186 2 0.417 4.80865 14.3738 63.3269
558 186 5 -0.834 5.50837 13.7836 62.9773
559 187 2 0.417 15.3964 20.3536 46.2564
560 187 2 0.417 16.5254 19.9726 45.3346
561 187 5 -0.834 16.1029 20.8021 45.696
562 188 2 0.417 13.6761 22.7559 9.46658
563 188 2 0.417 14.5824 23.9136 9.27261
564 188 5 -0.834 13.7193 23.6987 9.69044
565 189 2 0.417 20.7199 9.30987 75.7856
566 189 2 0.417 20.3171 8.19646 76.5576
567 189 5 -0.834 21.1441 8.67071 76.3954
568 190 2 0.417 3.34526 13.3463 62.511
569 190 2 0.417 1.94859 13.5153 62.0349
570 190 5 -0.834 2.67587 12.8766 62.0109
571 191 2 0.417 12.6498 4.89107 37.0775
572 191 2 0.417 13.7295 4.41629 36.1959
573 191 5 -0.834 13.5308 5.16634 36.7938
574 192 2 0.417 2.98015 4.11868 72.9647
575 192 2 0.417 3.49293 5.01302 74.0294
576 192 5 -0.834 3.44275 5.0113 73.0355
577 193 2 0.417 7.78752 14.0784 60.2214
578 193 2 0.417 8.08432 13.1156 59.1759
579 193 5 -0.834 7.83858 14.0942 59.2467
580 194 2 0.417 9.77772 1.18731 71.5073
581 194 2 0.417 9.1839 23.9661 70.9043
582 194 5 -0.834 8.92788 0.903032 71.213
583 195 2 0.417 11.694 8.73713 51.5954
584 195 2 0.417 13.0628 9.31659 51.1573
585 195 5 -0.834 12.1454 9.24082 50.8948
586 196 2 0.417 7.13635 13.5665 68.6404
587 196 2 0.417 5.75362 13.0043 68.4863
588 196 5 -0.834 6.28771 13.7002 68.0886
589 197 2 0.417 6.89563 6.76121 38.7133
590 197 2 0.417 7.68741 7.89763 39.1472
591 197 5 -0.834 7.19267 7.61748 38.3482
592 198 2 0.417 18.5204 16.9582 37.2354
593 198 2 0.417 19.8469 17.4398 37.636
594 198 5 -0.834 19.1594 17.6423 37.0087
595 199 2 0.417 1.74046 16.3548 83.0983
596 199 2 0.417 1.00979 15.5471 82.0875
597 199 5 -0.834 1.9026 15.5855 82.4743
598 200 2 0.417 8.95158 2.05336 88.3879
599 200 2 0.417 10.5046 1.75401 88.3675
600 200 5 -0.834 9.77864 2.26074 87.9552
601 201 2 0.417 7.93436 13.1776 37.844
602 201 2 0.417 6.68464 13.3913 37.2133
603 201 5 -0.834 7.57083 13.3191 36.936
604 202 2 0.417 15.8279 19.8504 88.2235
605 202 2 0.417 16.9602 18.8653 87.8329
606 202 5 -0.834 16.1534 19.3371 87.4616
607 203 2 0.417 5.61146 19.2725 71.0378
608 203 2 0.417 6.98549 19.5235 71.2771
609 203 5 -0.834 6.20521 19.3048 71.7804
610 204 2 0.417 3.95498 12.5514 38.1863
611 204 2 0.417 3.45228 12.435 36.7941
612 204 5 -0.834 4.29997 12.436 37.2617
613 205 2 0.417 18.4816 0.634165 50.4522
614 205 2 0.417 19.8164 0.789642 51.1779
615 205 5 -0.834 19.4074 0.328272 50.4374
616 206 2 0.417 22.5717 18.4481 88.292
617 206 2 0.417 22.5473 18.9001 86.7598
618 206 5 -0.834 22.3293 18.1622 87.3686
619 207 2 0.417 8.77203 10.5127 59.1236
620 207 2 0.417 7.85963 11.5103 59.8886
621 207 5 -0.834 8.66979 11.522 59.2866
622 208 2 0.417 2.00769 2.05785 54.2414
623 208 2 0.417 1.75933 3.3338 55.0015
624 208 5 -0.834 1.36682 2.83076 54.3307
625 209 2 0.417 3.46621 9.39059 53.3353
626 209 2 0.417 4.10061 9.49103 54.6051
627 209 5 -0.834 3.24675 9.36438 54.2071
628 210 2 0.417 19.1576 1.99798 63.0845
629 210 2 0.417 18.8526 1.00827 61.9213
630 210 5 -0.834 19.2026 1.88273 62.0862
631 211 2 0.417 2.2715 5.45103 3.07121
632 211 2 0.417 2.96966 4.939 1.75582
633 211 5 -0.834 2.21722 4.75622 2.40212
634 212 2 0.417 12.7963 2.39652 76.8784
635 212 2 0.417 12.146 1.2343 76.13
636 212 5 -0.834 12.7057 1.9856 75.9841
637 213 2 0.417 5.32074 3.33167 41.2038
638 213 2 0.417 5.73895 2.01153 41.421
639 213 5 -0.834 6.00727 2.9013 41.7106
640 214 2 0.417 16.991 22.9738 82.0855
641 214 2 0.417 16.0544 22.8575 80.9095
642 214 5 -0.834 16.6838 22.3479 81.4012
643 215 2 0.417 20.7701 2.93216 91.0852
644 215 2 0.417 19.5794 2.40482 90.3002
645 215 5 -0.834 20.0743 3.24883 90.443
646 216 2 0.417 1.39775 12.5556 71.6699
647 216 2 0.417 2.19576 13.0099 70.5608
648 216 5 -0.834 1.75858 12.1875 70.8594
649 217 2 0.417 15.3952 4.66778 77.5182
650 217 2 0.417 14.5485 5.77128 78.197
651 217 5 -0.834 14.9413 5.55387 77.3796
652 218 2 0.417 5.21398 9.36328 67.5376
653 218 2 0.417 4.15678 8.54429 67.0571
654 218 5 -0.834 4.7942 9.12725 66.7133
655 219 2 0.417 10.277 5.39925 46.3519
656 219 2 0.417 9.86614 4.29028 47.255
657 219 5 -0.834 9.93465 4.52242 46.2788
658 220 2 0.417 24.1661 16.236 90.5926
659 220 2 0.417 1.55272 16.6603 90.6175
660 220 5 -0.834 0.82539 16.6301 89.9798
661 221 2 0.417 16.9737 11.9294 40.5037
662 221 2 0.417 15.8175 12.4132 39.6244
663 221 5 -0.834 16.2203 11.572 40.0034
664 222 2 0.417 1.88853 22.7541 50.0777
665 222 2 0.417 2.56939 22.4906 51.2695
666 222 5 -0.834 2.73256 22.4001 50.3734
667 223 2 0.417 5.41568 0.573225 3.32457
668 223 2 0.417 4.32451 1.30639 3.91205
669 223 5 -0.834 4.55726 0.9782 3.05533
670 224 2 0.417 0.570906 13.3668 77.0675
671 224 2 0.417 23.7855 14.7133 77.1497
672 224 5 -0.834 0.472772 14.2328 76.6178
673 225 2 0.417 16.1383 9.07492 63.4987
674 225 2 0.417 15.6696 9.58165 62.219
675 225 5 -0.834 16.2636 8.9587 62.5531
676 226 2 0.417 6.46193 2.42473 87.2971
677 226 2 0.417 7.38464 3.12427 86.2686
678 226 5 -0.834 6.48804 2.92275 86.4624
679 227 2 0.417 23.493 1.25211 74.8317
680 227 2 0.417 23.3903 2.53432 75.4805
681 227 5 -0.834 23.6266 2.20633 74.6302
682 228 2 0.417 0.65178 10.9316 77.1672
683 228 2 0.417 0.661597 11.7282 78.5113
684 228 5 -0.834 0.385691 11.7715 77.5728
685 229 2 0.417 18.2864 7.17561 46.2065
686 229 2 0.417 19.6167 7.6251 46.1576
687 229 5 -0.834 18.81 7.71345 45.6542
688 230 2 0.417 12.9136 4.83989 74.1252
689 230 2 0.417 12.5821 3.42224 74.6112
690 230 5 -0.834 12.6314 3.96197 73.7197
691 231 2 0.417 13.6852 6.85711 37.0532
692 231 2 0.417 14.6806 7.82081 37.6392
693 231 5 -0.834 13.9618 7.83931 36.9533
694 232 2 0.417 24.0841 20.2239 60.5125
695 232 2 0.417 0.835551 19.0169 60.6661
696 232 5 -0.834 0.63642 19.7163 59.9172
697 233 2 0.417 2.92121 15.5074 74.2769
698 233 2 0.417 4.20361 15.8595 73.639
699 233 5 -0.834 3.55017 15.1495 73.6073
700 234 2 0.417 17.778 3.2287 80.7826
701 234 2 0.417 17.9242 2.10821 81.5795
702 234 5 -0.834 17.5987 2.27458 80.7087
703 235 2 0.417 11.6981 5.2737 72.7345
704 235 2 0.417 10.3766 5.78675 72.1007
705 235 5 -0.834 11.3544 5.95714 72.1406
706 236 2 0.417 8.08869 15.2481 40.973
707 236 2 0.417 6.90781 15.8872 40.811
708 236 5 -0.834 7.14955 14.9588 40.9011
709 237 2 0.417 21.3226 12.3298 11.7638
710 237 2 0.417 21.9652 12.2195 10.5359
711 237 5 -0.834 22.1921 11.975 11.5113
712 238 2 0.417 5.16561 6.84838 62.8653
713 238 2 0.417 4.79293 5.36668 62.8953
714 238 5 -0.834 5.37772 5.98703 62.421
715 239 2 0.417 22.5409 2.5971 86.5557
716 239 2 0.417 22.8528 1.81282 85.3592
717 239 5 -0.834 22.2271 2.48895 85.5742
718 240 2 0.417 5.74562 15.3883 69.1446
719 240 2 0.417 5.88245 15.7734 70.5889
720 240 5 -0.834 5.32293 15.9557 69.7929
721 241 2 0.417 12.8175 20.0863 74.5372
722 241 2 0.417 11.8211 19.9128 75.6129
723 241 5 -0.834 12.1272 19.4474 74.7993
724 242 2 0.417 20.9386 11.8292 44.6986
725 242 2 0.417 22.152 12.1362 45.5773
726 242 5 -0.834 21.7978 12.2573 44.6635
727 243 2 0.417 19.6885 7.06537 70.4619
728 243 2 0.417 19.5924 8.39936 69.7399
729 243 5 -0.834 19.4954 8.03325 70.6467
730 244 2 0.417 16.5804 5.7642 83.8322
731 244 2 0.417 16.2643 7.16349 84.1323
732 244 5 -0.834 16.6094 6.63902 83.4154
733 245 2 0.417 10.843 20.1674 35.7476
734 245 2 0.417 9.71155 21.0914 36.0952
735 245 5 -0.834 10.1593 20.6972 35.3721
736 246 2 0.417 19.3679 22.7196 78.4173
737 246 2 0.417 20.1405 21.5065 78.8489
738 246 5 -0.834 19.7814 21.962 78.0604
739 247 2 0.417 10.2209 8.81945 63.3172
740 247 2 0.417 10.5003 9.20104 64.738
741 247 5 -0.834 10.7036 9.5478 63.8628
742 248 2 0.417 2.83605 23.0906 53.8054
743 248 2 0.417 1.47298 22.5958 53.5325
744 248 5 -0.834 2.27111 22.7857 53.0785
745 249 2 0.417 9.16478 11.2272 81.9057
746 249 2 0.417 9.58404 10.3137 80.7781
747 249 5 -0.834 9.2519 11.1566 80.9665
748 250 2 0.417 23.1238 23.0753 41.7215
749 250 2 0.417 23.0419 21.6181 41.7767
750 250 5 -0.834 23.2438 22.325 41.1362
751 251 2 0.417 21.7065 16.1541 40.5623
752 251 2 0.417 22.8967 16.1882 39.6663
753 251 5 -0.834 22.6241 16.3724 40.5747