 DBCSR| CPU Multiplication driver                                           XSMM
 DBCSR| Multrec recursion limit                                              512
 DBCSR| Multiplication stack size                                           1000
 DBCSR| Maximum elements for images                                    UNLIMITED
 DBCSR| Multiplicative factor virtual images                                   1
 DBCSR| Use multiplication densification                                       T
 DBCSR| Multiplication size stacks                                             3
 DBCSR| Number of 3D layers                                               SINGLE
 DBCSR| Use MPI memory allocation                                              T
 DBCSR| Use RMA algorithm                                                      F
 DBCSR| Use Communication thread                                               T
 DBCSR| Communication thread load                                             87


  **** **** ******  **  PROGRAM STARTED AT               2022-07-05 19:06:16.875
 ***** ** ***  *** **   PROGRAM STARTED ON         node0182.palmetto.clemson.edu
 **    ****   ******    PROGRAM STARTED BY                               xiutinc
 ***** **    ** ** **   PROGRAM PROCESS ID                               1682101
  **** **  *******  **  PROGRAM STARTED IN  /scratch1/xiutinc/CP2K-5305505.pbs02

 CP2K| version string:                                          CP2K version 7.1
 CP2K| source code revision number:                                  git:e635599
 CP2K| cp2kflags: libint fftw3 libxc parallel mpi3 scalapack xsmm               
 CP2K| is freely available from                            https://www.cp2k.org/
 CP2K| Program compiled at                          Wed Aug 12 10:01:37 EDT 2020
 CP2K| Program compiled on                           util02.palmetto.clemson.edu
 CP2K| Program compiled for                          linux-centos8-ivybridge-gcc
 CP2K| Data directory path    /software/spackages/linux-centos8-ivybridge/gcc-8.
 CP2K| Input file name                                             intE07_aq.inp

 GLOBAL| Force Environment number                                              1
 GLOBAL| Basis set file name                                          BASIS_file
 GLOBAL| Potential file name                                     POTENTIALS_file
 GLOBAL| MM Potential file name                                     MM_POTENTIAL
 GLOBAL| Coordinate file name                                    ./intE07_aq.xyz
 GLOBAL| Method name                                                        CP2K
 GLOBAL| Project name                                                  intE07_aq
 GLOBAL| Preferred FFT library                                             FFTW3
 GLOBAL| Preferred diagonalization lib.                                       SL
 GLOBAL| Run type                                                        GEO_OPT
 GLOBAL| All-to-all communication in single precision                          F
 GLOBAL| FFTs using library dependent lengths                                  F
 GLOBAL| Global print level                                                  LOW
 GLOBAL| MPI I/O enabled                                                       T
 GLOBAL| Total number of message passing processes                            24
 GLOBAL| Number of threads for this process                                    1
 GLOBAL| This output is from process                                           0
 GLOBAL| CPU model name                Intel(R) Xeon(R) CPU E5-2680 v3 @ 2.50GHz
 GLOBAL| CPUID                                                              1002
 GLOBAL| Compiled for CPUID                                                 1001

 MEMORY| system memory details [Kb]
 MEMORY|                        rank 0           min           max       average
 MEMORY| MemTotal            131661896     131661896     131661896     131661896
 MEMORY| MemFree             120949240     120914868     120959036     120943241
 MEMORY| Buffers                  8204          8204          8204          8204
 MEMORY| Cached                4264132       4264132       4264132       4264132
 MEMORY| Slab                  2154808       2154808       2154808       2154808
 MEMORY| SReclaimable          1331192       1331192       1331192       1331192
 MEMORY| MemLikelyFree       126552768     126518396     126562564     126546769


 *******************************************************************************
 *******************************************************************************
 **                                                                           **
 **     #####                         ##              ##                      **
 **    ##   ##            ##          ##              ##                      **
 **   ##     ##                       ##            ######                    **
 **   ##     ##  ##   ##  ##   #####  ##  ##   ####   ##    #####    #####    **
 **   ##     ##  ##   ##  ##  ##      ## ##   ##      ##   ##   ##  ##   ##   **
 **   ##  ## ##  ##   ##  ##  ##      ####     ###    ##   ######   ######    **
 **    ##  ###   ##   ##  ##  ##      ## ##      ##   ##   ##       ##        **
 **     #######   #####   ##   #####  ##  ##  ####    ##    #####   ##        **
 **           ##                                                    ##        **
 **                                                                           **
 **                                                ... make the atoms dance   **
 **                                                                           **
 **            Copyright (C) by CP2K developers group (2000 - 2019)           **
 **                                                                           **
 *******************************************************************************


 TOTAL NUMBERS AND MAXIMUM NUMBERS

  Total number of            - Atomic kinds:                                   5
                             - Atoms:                                        654
                             - Shell sets:                                   654
                             - Shells:                                      3165
                             - Primitive Cartesian functions:               3081
                             - Cartesian basis functions:                   8687
                             - Spherical basis functions:                   8083

  Maximum angular momentum of- Orbital basis functions:                        3
                             - Local part of the GTH pseudopotential:          2
                             - Non-local part of the GTH pseudopotential:      3


 SCF PARAMETERS         Density guess:                                   RESTART
                        --------------------------------------------------------
                        max_scf:                                             500
                        max_scf_history:                                       0
                        max_diis:                                              4
                        --------------------------------------------------------
                        eps_scf:                                        1.00E-06
                        eps_scf_history:                                0.00E+00
                        eps_diis:                                       1.00E-01
                        eps_eigval:                                     1.00E-05
                        --------------------------------------------------------
                        level_shift [a.u.]:                                 0.00
                        --------------------------------------------------------
                        Outer loop SCF in use 
                        No variables optimised in outer loop
                        eps_scf                                         1.00E-06
                        max_scf                                               50
                        No outer loop optimization
                        step_size                                       5.00E-01

 BFGS| Use rational function optimization for step estimation:                NO
 BFGS| Use model Hessian for initial guess:                                  YES
 BFGS| Restart Hessian:                                                       NO
 BFGS| Trust radius:                                                       0.472

 *******************************************************************************
 ***                     STARTING GEOMETRY OPTIMIZATION                      ***
 ***                                   BFGS                                  ***
 *******************************************************************************

 Number of electrons:                                                       3278
 Number of occupied orbitals:                                               1639
 Number of molecular orbitals:                                              1639

 Number of orbital functions:                                               8083
 Number of independent orbital functions:                                   8083

 Extrapolation method: initial_guess

 *** WARNING in qs_initial_guess.F:280 :: User requested to restart the   ***
 *** wavefunction from the file named: intE07_aq-RESTART.wfn. This file   ***
 *** does not exist. Please check the existence of the file or change     ***
 *** properly the value of the keyword WFN_RESTART_FILE_NAME. Calculation ***
 *** continues using ATOMIC GUESS.                                        ***



 SCF WAVEFUNCTION OPTIMIZATION

  ----------------------------------- OT ---------------------------------------
  Minimizer      : CG                  : conjugate gradient
  Preconditioner : FULL_ALL            : diagonalization, state selective
  Precond_solver : DEFAULT
  Line search    : 2PNT                : 2 energies, one gradient
  stepsize       :    0.15000000                  energy_gap     :    0.00100000
  eps_taylor     :   0.10000E-15                  max_taylor     :             4
  ----------------------------------- OT ---------------------------------------

  Step     Update method      Time    Convergence         Total energy    Change
  ------------------------------------------------------------------------------
     1 OT CG       0.15E+00   37.6     0.01607321     -7186.0561606604 -7.19E+03
     2 OT LS       0.62E-01    4.2                    -7075.4716297004
     3 OT CG       0.62E-01   10.7     0.07201804     -7112.2123301683  7.38E+01
     4 OT LS       0.28E-01    4.2                    -6651.9316474504
     5 OT CG       0.28E-01   10.9     0.11355934     -6815.0943225248  2.97E+02
     6 OT LS       0.16E-01    4.1                    -6938.7319590000
     7 OT CG       0.16E-01   10.7     0.06380672     -7023.7438995123 -2.09E+02
     8 OT LS       0.93E-02    4.1                    -7120.1714513798
     9 OT CG       0.93E-02   10.6     0.01917065     -7163.6931372269 -1.40E+02
    10 OT LS       0.17E-01    4.1                    -7189.4930273461
    11 OT CG       0.17E-01   10.7     0.01687335     -7192.6446960303 -2.90E+01
    12 OT LS       0.28E-01    4.1                    -7228.4276250763
    13 OT CG       0.28E-01   10.7     0.01369053     -7237.2776441781 -4.46E+01
    14 OT LS       0.16E-01    4.1                    -7246.8074687641
    15 OT CG       0.16E-01   10.6     0.01142584     -7255.2793545459 -1.80E+01
    16 OT LS       0.58E-01    4.1                    -7277.8586726351
    17 OT CG       0.58E-01   10.6     0.02354368     -7277.6902134162 -2.24E+01
    18 OT LS       0.27E-01    4.1                    -7248.7874982196
    19 OT CG       0.27E-01   10.6     0.02269749     -7264.2691381914  1.34E+01
    20 OT LS       0.64E-02    4.1                    -7151.4667424519
    21 OT CG       0.64E-02   10.8     0.01350486     -7286.2643473256 -2.20E+01
    22 OT LS       0.14E-01    4.1                    -7298.0853527957
    23 OT CG       0.14E-01   10.6     0.00986751     -7301.9682339484 -1.57E+01
    24 OT LS       0.41E-01    4.1                    -7315.2098645819
    25 OT CG       0.41E-01   10.6     0.01429466     -7317.4511996703 -1.55E+01
    26 OT LS       0.49E-02    7.2                    -7174.7077939928
    27 OT CG       0.49E-02   10.6     0.01391363     -7320.9872995839 -3.54E+00
    28 OT LS       0.11E-01    4.1                    -7330.7373762757
    29 OT CG       0.11E-01   10.6     0.00395661     -7335.7242802757 -1.47E+01
    30 OT LS       0.43E-01    4.1                    -7337.8058449186
    31 OT CG       0.43E-01   10.6     0.00294392     -7342.5829541129 -6.86E+00
    32 OT LS       0.87E-01    4.1                    -7346.2828264245
    33 OT CG       0.87E-01   10.6     0.00667138     -7346.7992134625 -4.22E+00
    34 OT LS       0.11E-01    4.1                    -7250.2055798173
    35 OT CG       0.11E-01   10.6     0.00746135     -7349.8742078756 -3.07E+00
    36 OT LS       0.14E-01    4.1                    -7354.9314116954
    37 OT CG       0.14E-01   10.8     0.00197136     -7355.1644380616 -5.29E+00
    38 OT LS       0.55E-01    4.1                    -7355.8730266290
    39 OT CG       0.55E-01   12.3     0.00170697     -7357.5928810531 -2.43E+00
    40 OT LS       0.20E+00    8.6                    -7359.6862404922
    41 OT CG       0.20E+00   10.8     0.00341500     -7362.0863736386 -4.49E+00
    42 OT LS       0.55E-01    4.1                    -7336.9650495432
    43 OT CG       0.55E-01   10.6     0.00264073     -7366.3880307805 -4.30E+00
    44 OT LS       0.49E-01    4.1                    -7368.5999540215
    45 OT CG       0.49E-01   10.6     0.00233517     -7368.6029660401 -2.21E+00
    46 OT LS       0.67E-01    4.1                    -7370.9444855587
    47 OT CG       0.67E-01   10.6     0.00319236     -7370.9863245204 -2.38E+00
    48 OT LS       0.43E-01    4.1                    -7372.6326636751
    49 OT CG       0.43E-01   10.6     0.00318088     -7373.3784364510 -2.39E+00
    50 OT LS       0.29E-01    4.1                    -7374.8880403099
    51 OT CG       0.29E-01   10.6     0.00219872     -7375.2068736366 -1.83E+00
    52 OT LS       0.85E-01    4.1                    -7376.7597707780
    53 OT CG       0.85E-01   10.8     0.00214479     -7377.7017824823 -2.49E+00
    54 OT LS       0.54E-01    4.1                    -7378.5885992348
    55 OT CG       0.54E-01   10.6     0.00200067     -7378.9960940702 -1.29E+00
    56 OT LS       0.71E-01    4.1                    -7380.7661523956
    57 OT CG       0.71E-01   10.6     0.00193372     -7380.9151318280 -1.92E+00
    58 OT LS       0.49E-01    4.1                    -7381.9735664474
    59 OT CG       0.49E-01   10.6     0.00165919     -7382.2966250183 -1.38E+00
    60 OT LS       0.78E-01    4.1                    -7383.5108955257
    61 OT CG       0.78E-01   10.6     0.00199977     -7383.7234121607 -1.43E+00
    62 OT LS       0.60E-01    4.1                    -7385.2109033478
    63 OT CG       0.60E-01   10.6     0.00188344     -7385.2783149440 -1.55E+00
    64 OT LS       0.94E-01    4.1                    -7387.2762410438
    65 OT CG       0.94E-01   10.6     0.00234098     -7387.4369482919 -2.16E+00
    66 OT LS       0.44E-01    4.1                    -7386.9716122881
    67 OT CG       0.44E-01   10.6     0.00228429     -7388.8035752718 -1.37E+00
    68 OT LS       0.49E-01    4.1                    -7390.4908736707
    69 OT CG       0.49E-01   10.8     0.00157237     -7390.5345638186 -1.73E+00
    70 OT LS       0.73E-01    4.1                    -7391.6817985126
    71 OT CG       0.73E-01   10.6     0.00127638     -7391.7853950511 -1.25E+00
    72 OT LS       0.92E-01    4.1                    -7392.6386731441
    73 OT CG       0.92E-01   10.6     0.00151322     -7392.6853379726 -9.00E-01
    74 OT LS       0.78E-01    4.1                    -7393.8566322927
    75 OT CG       0.78E-01   10.6     0.00146356     -7393.8760041635 -1.19E+00
    76 OT LS       0.81E-01    4.1                    -7395.0586129152
    77 OT CG       0.81E-01   10.6     0.00139785     -7395.0566650977 -1.18E+00
    78 OT LS       0.91E-01    4.1                    -7396.1677624729
    79 OT CG       0.91E-01   10.6     0.00167826     -7396.1754103871 -1.12E+00
    80 OT LS       0.63E-01    4.1                    -7397.0890943094
    81 OT CG       0.63E-01   10.6     0.00137526     -7397.2874911255 -1.11E+00
    82 OT LS       0.91E-01    4.1                    -7398.3283589467
    83 OT CG       0.91E-01   10.6     0.00131540     -7398.4335338121 -1.15E+00
    84 OT LS       0.81E-01    4.1                    -7399.3344931136
    85 OT CG       0.81E-01   10.8     0.00129048     -7399.3504847689 -9.17E-01
    86 OT LS       0.81E-01    4.1                    -7400.2443891696
    87 OT CG       0.81E-01   10.6     0.00119828     -7400.2445334840 -8.94E-01
    88 OT LS       0.81E-01    4.1                    -7401.0273250623
    89 OT CG       0.81E-01   10.6     0.00112748     -7401.0275079374 -7.83E-01
    90 OT LS       0.89E-01    4.1                    -7401.7580760816
    91 OT CG       0.89E-01   10.6     0.00115990     -7401.7606413607 -7.33E-01
    92 OT LS       0.81E-01    4.1                    -7402.4603764863
    93 OT CG       0.81E-01   10.6     0.00109230     -7402.4638697928 -7.03E-01
    94 OT LS       0.84E-01    4.1                    -7403.1355508928
    95 OT CG       0.84E-01   10.6     0.00101239     -7403.1368388004 -6.73E-01
    96 OT LS       0.87E-01    4.1                    -7403.7345641952
    97 OT CG       0.87E-01   10.7     0.00102920     -7403.7345886269 -5.98E-01
    98 OT LS       0.90E-01    4.1                    -7404.3553918398
    99 OT CG       0.90E-01   10.6     0.00105644     -7404.3556335472 -6.21E-01
   100 OT LS       0.84E-01    4.1                    -7404.9642331622
   101 OT CG       0.84E-01   10.6     0.00098276     -7404.9667400781 -6.11E-01
   102 OT LS       0.82E-01    4.2                    -7405.4981051393
   103 OT CG       0.82E-01   10.6     0.00092596     -7405.4982581362 -5.32E-01
   104 OT LS       0.86E-01    4.1                    -7405.9864290320
   105 OT CG       0.86E-01   12.6     0.00089643     -7405.9869708950 -4.89E-01
   106 OT LS       0.95E-01    4.1                    -7406.4835352631
   107 OT CG       0.95E-01   10.6     0.00090523     -7406.4880616576 -5.01E-01
   108 OT LS       0.83E-01    4.1                    -7406.9295598435
   109 OT CG       0.83E-01   10.6     0.00086836     -7406.9385899437 -4.51E-01
   110 OT LS       0.86E-01    4.1                    -7407.3687130943
   111 OT CG       0.86E-01   10.6     0.00082991     -7407.3690807869 -4.30E-01
   112 OT LS       0.91E-01    4.1                    -7407.7793466414
   113 OT CG       0.91E-01   10.6     0.00082593     -7407.7802487017 -4.11E-01
   114 OT LS       0.90E-01    4.1                    -7408.1827161160
   115 OT CG       0.90E-01   10.6     0.00080323     -7408.1827361206 -4.02E-01
   116 OT LS       0.85E-01    4.1                    -7408.5455734260
   117 OT CG       0.85E-01   10.6     0.00076555     -7408.5466229550 -3.64E-01
   118 OT LS       0.91E-01    4.3                    -7408.8978109629
   119 OT CG       0.91E-01   16.6     0.00074075     -7408.8989852738 -3.52E-01
   120 OT LS       0.90E-01    5.7                    -7409.2239389346
   121 OT CG       0.90E-01   10.6     0.00074685     -7409.2239698810 -3.25E-01
   122 OT LS       0.86E-01    4.1                    -7409.5388269337
   123 OT CG       0.86E-01   10.6     0.00070638     -7409.5395116695 -3.16E-01
   124 OT LS       0.90E-01    4.1                    -7409.8365694513
   125 OT CG       0.90E-01   10.6     0.00068234     -7409.8372581313 -2.98E-01
   126 OT LS       0.92E-01    4.1                    -7410.1212689785
   127 OT CG       0.92E-01   10.6     0.00066896     -7410.1213644303 -2.84E-01
   128 OT LS       0.91E-01    4.1                    -7410.3914716706
   129 OT CG       0.91E-01   10.6     0.00066221     -7410.3914876263 -2.70E-01
   130 OT LS       0.88E-01    4.1                    -7410.6449421613
   131 OT CG       0.88E-01   10.6     0.00063005     -7410.6453677935 -2.54E-01
   132 OT LS       0.90E-01    4.1                    -7410.8824299266
   133 OT CG       0.90E-01   10.8     0.00061215     -7410.8826322266 -2.37E-01
   134 OT LS       0.89E-01    4.1                    -7411.1046995549
   135 OT CG       0.89E-01   10.6     0.00059504     -7411.1047265647 -2.22E-01
   136 OT LS       0.93E-01    4.1                    -7411.3216287714
   137 OT CG       0.93E-01   10.6     0.00058348     -7411.3218853115 -2.17E-01
   138 OT LS       0.91E-01    4.1                    -7411.5261681330
   139 OT CG       0.91E-01   10.6     0.00056349     -7411.5262523497 -2.04E-01
   140 OT LS       0.90E-01    4.2                    -7411.7157335957
   141 OT CG       0.90E-01   10.6     0.00054482     -7411.7157417714 -1.89E-01
   142 OT LS       0.91E-01    4.1                    -7411.8953116042
   143 OT CG       0.91E-01   10.6     0.00053167     -7411.8953381408 -1.80E-01
   144 OT LS       0.93E-01    4.1                    -7412.0689919731
   145 OT CG       0.93E-01   10.6     0.00052153     -7412.0690324647 -1.74E-01
   146 OT LS       0.92E-01    4.1                    -7412.2339638024
   147 OT CG       0.92E-01   10.6     0.00050883     -7412.2339897185 -1.65E-01
   148 OT LS       0.90E-01    4.1                    -7412.3883961279
   149 OT CG       0.90E-01   10.8     0.00048865     -7412.3884390269 -1.54E-01
   150 OT LS       0.93E-01    4.1                    -7412.5355246807
   151 OT CG       0.93E-01   10.6     0.00047646     -7412.5356755289 -1.47E-01
   152 OT LS       0.93E-01    4.1                    -7412.6756716371
   153 OT CG       0.93E-01   10.6     0.00046876     -7412.6756716237 -1.40E-01
   154 OT LS       0.92E-01    4.1                    -7412.8099822640
   155 OT CG       0.92E-01   10.6     0.00045787     -7412.8099918911 -1.34E-01
   156 OT LS       0.92E-01    4.1                    -7412.9377229864
   157 OT CG       0.92E-01   10.6     0.00044357     -7412.9377243446 -1.28E-01
   158 OT LS       0.93E-01    4.1                    -7413.0593301311
   159 OT CG       0.93E-01   10.6     0.00043243     -7413.0593550345 -1.22E-01
   160 OT LS       0.94E-01    4.1                    -7413.1756570732
   161 OT CG       0.94E-01   10.6     0.00042589     -7413.1756613579 -1.16E-01
   162 OT LS       0.93E-01    4.1                    -7413.2871984330
   163 OT CG       0.93E-01   10.6     0.00041594     -7413.2872127550 -1.12E-01
   164 OT LS       0.94E-01    4.1                    -7413.3946312495
   165 OT CG       0.94E-01   10.6     0.00040620     -7413.3946412242 -1.07E-01
   166 OT LS       0.93E-01    4.3                    -7413.4961328091
   167 OT CG       0.93E-01   10.6     0.00039522     -7413.4961417084 -1.02E-01
   168 OT LS       0.94E-01    4.1                    -7413.5930171979
   169 OT CG       0.94E-01   10.7     0.00038801     -7413.5930239150 -9.69E-02
   170 OT LS       0.94E-01    4.1                    -7413.6867787653
   171 OT CG       0.94E-01   10.6     0.00037910     -7413.6867802530 -9.38E-02
   172 OT LS       0.94E-01    4.1                    -7413.7767193458
   173 OT CG       0.94E-01   10.6     0.00037188     -7413.7767214914 -8.99E-02
   174 OT LS       0.94E-01    4.1                    -7413.8630504842
   175 OT CG       0.94E-01   10.6     0.00036370     -7413.8630510173 -8.63E-02
   176 OT LS       0.94E-01    4.1                    -7413.9455627643
   177 OT CG       0.94E-01   10.6     0.00035602     -7413.9455627846 -8.25E-02
   178 OT LS       0.95E-01    4.1                    -7414.0253735830
   179 OT CG       0.95E-01   10.6     0.00034994     -7414.0253807406 -7.98E-02
   180 OT LS       0.94E-01    4.1                    -7414.1017034908
   181 OT CG       0.94E-01   10.6     0.00034272     -7414.1017117849 -7.63E-02
   182 OT LS       0.95E-01    4.1                    -7414.1753114435
   183 OT CG       0.95E-01   10.8     0.00033553     -7414.1753134856 -7.36E-02
   184 OT LS       0.94E-01    4.1                    -7414.2457182818
   185 OT CG       0.94E-01   11.9     0.00032753     -7414.2457185336 -7.04E-02
   186 OT LS       0.95E-01    4.1                    -7414.3134905477
   187 OT CG       0.95E-01   10.6     0.00032211     -7414.3134977539 -6.78E-02
   188 OT LS       0.95E-01    4.1                    -7414.3789653980
   189 OT CG       0.95E-01   10.6     0.00031589     -7414.3789655478 -6.55E-02
   190 OT LS       0.95E-01    4.1                    -7414.4418403870
   191 OT CG       0.95E-01   10.6     0.00031027     -7414.4418405169 -6.29E-02
   192 OT LS       0.95E-01    4.1                    -7414.5025767983
   193 OT CG       0.95E-01   10.6     0.00030467     -7414.5025769070 -6.07E-02
   194 OT LS       0.94E-01    4.1                    -7414.5605860168
   195 OT CG       0.94E-01   10.6     0.00029765     -7414.5605910547 -5.80E-02
   196 OT LS       0.96E-01    4.1                    -7414.6168677023
   197 OT CG       0.96E-01   10.7     0.00029262     -7414.6168825813 -5.63E-02
   198 OT LS       0.95E-01    4.4                    -7414.6707836630
   199 OT CG       0.95E-01   16.7     0.00028645     -7414.6707885218 -5.39E-02
   200 OT LS       0.96E-01    4.6                    -7414.7227478455
   201 OT CG       0.96E-01   10.6     0.00028163     -7414.7227496744 -5.20E-02
   202 OT LS       0.95E-01    4.1                    -7414.7727965378
   203 OT CG       0.95E-01   10.6     0.00027609     -7414.7727971370 -5.00E-02
   204 OT LS       0.96E-01    4.1                    -7414.8210867111
   205 OT CG       0.96E-01   10.6     0.00027120     -7414.8210875061 -4.83E-02
   206 OT LS       0.96E-01    4.1                    -7414.8677867512
   207 OT CG       0.96E-01   10.6     0.00026666     -7414.8677869342 -4.67E-02
   208 OT LS       0.96E-01    4.1                    -7414.9129329685
   209 OT CG       0.96E-01   10.6     0.00026215     -7414.9129329644 -4.51E-02
   210 OT LS       0.96E-01    4.1                    -7414.9566215052
   211 OT CG       0.96E-01   10.6     0.00025748     -7414.9566215954 -4.37E-02
   212 OT LS       0.96E-01    4.1                    -7414.9988801756
   213 OT CG       0.96E-01   10.6     0.00025275     -7414.9988805033 -4.23E-02
   214 OT LS       0.97E-01    4.4                    -7415.0397603980
   215 OT CG       0.97E-01   10.6     0.00024905     -7415.0397609935 -4.09E-02
   216 OT LS       0.96E-01    4.1                    -7415.0793034190
   217 OT CG       0.96E-01   10.6     0.00024529     -7415.0793040829 -3.95E-02
   218 OT LS       0.96E-01    4.1                    -7415.1174537981
   219 OT CG       0.96E-01   10.6     0.00024132     -7415.1174548657 -3.82E-02
   220 OT LS       0.96E-01    4.1                    -7415.1543885138
   221 OT CG       0.96E-01   10.6     0.00023716     -7415.1543885216 -3.69E-02
   222 OT LS       0.96E-01    4.1                    -7415.1900560834
   223 OT CG       0.96E-01   10.6     0.00023296     -7415.1900560781 -3.57E-02
   224 OT LS       0.97E-01    4.1                    -7415.2247806631
   225 OT CG       0.97E-01   10.6     0.00022943     -7415.2247832882 -3.47E-02
   226 OT LS       0.97E-01    4.1                    -7415.2584924023
   227 OT CG       0.97E-01   10.6     0.00022580     -7415.2584924192 -3.37E-02
   228 OT LS       0.97E-01    4.1                    -7415.2912208773
   229 OT CG       0.97E-01   10.6     0.00022290     -7415.2912211070 -3.27E-02
   230 OT LS       0.96E-01    4.4                    -7415.3228117178
   231 OT CG       0.96E-01   10.6     0.00021894     -7415.3228145923 -3.16E-02
   232 OT LS       0.97E-01    4.1                    -7415.3535513541
   233 OT CG       0.97E-01   10.6     0.00021579     -7415.3535534343 -3.07E-02
   234 OT LS       0.97E-01    4.1                    -7415.3834527728
   235 OT CG       0.97E-01   10.6     0.00021264     -7415.3834528056 -2.99E-02
   236 OT LS       0.97E-01    4.1                    -7415.4123740250
   237 OT CG       0.97E-01   10.6     0.00020966     -7415.4123743978 -2.89E-02
   238 OT LS       0.97E-01    4.1                    -7415.4404980482
   239 OT CG       0.97E-01   10.6     0.00020624     -7415.4404980507 -2.81E-02
   240 OT LS       0.97E-01    4.1                    -7415.4677633072
   241 OT CG       0.97E-01   10.6     0.00020337     -7415.4677633892 -2.73E-02
   242 OT LS       0.97E-01    4.1                    -7415.4943658794
   243 OT CG       0.97E-01   10.6     0.00020091     -7415.4943661567 -2.66E-02
   244 OT LS       0.97E-01    4.1                    -7415.5202937019
   245 OT CG       0.97E-01   10.6     0.00019836     -7415.5202937424 -2.59E-02
   246 OT LS       0.97E-01    4.1                    -7415.5455103147
   247 OT CG       0.97E-01   10.7     0.00019534     -7415.5455104336 -2.52E-02
   248 OT LS       0.97E-01    4.1                    -7415.5700649379
   249 OT CG       0.97E-01   10.6     0.00019269     -7415.5700653072 -2.46E-02
   250 OT LS       0.98E-01    4.1                    -7415.5940555219
   251 OT CG       0.98E-01   10.6     0.00019024     -7415.5940558803 -2.40E-02
   252 OT LS       0.97E-01    4.1                    -7415.6173276007
   253 OT CG       0.97E-01   10.6     0.00018818     -7415.6173281070 -2.33E-02
   254 OT LS       0.97E-01    4.1                    -7415.6399702924
   255 OT CG       0.97E-01   10.6     0.00018580     -7415.6399710071 -2.26E-02
   256 OT LS       0.96E-01    4.1                    -7415.6620088979
   257 OT CG       0.96E-01   10.6     0.00018282     -7415.6620089668 -2.20E-02
   258 OT LS       0.98E-01    4.1                    -7415.6836087505
   259 OT CG       0.98E-01   10.6     0.00018086     -7415.6836119706 -2.16E-02
   260 OT LS       0.98E-01    4.1                    -7415.7047380858
   261 OT CG       0.98E-01   10.6     0.00017883     -7415.7047380966 -2.11E-02
   262 OT LS       0.97E-01    4.1                    -7415.7252798903
   263 OT CG       0.97E-01   10.8     0.00017649     -7415.7252804921 -2.05E-02
   264 OT LS       0.97E-01    4.1                    -7415.7453454453
   265 OT CG       0.97E-01   11.8     0.00017372     -7415.7453456055 -2.01E-02
   266 OT LS       0.98E-01    4.1                    -7415.7649599320
   267 OT CG       0.98E-01   10.6     0.00017180     -7415.7649614655 -1.96E-02
   268 OT LS       0.98E-01    4.1                    -7415.7840553608
   269 OT CG       0.98E-01   10.6     0.00016997     -7415.7840557951 -1.91E-02
   270 OT LS       0.97E-01    4.1                    -7415.8026816310
   271 OT CG       0.97E-01   10.6     0.00016795     -7415.8026818457 -1.86E-02
   272 OT LS       0.97E-01    4.1                    -7415.8208573120
   273 OT CG       0.97E-01   10.6     0.00016620     -7415.8208573195 -1.82E-02
   274 OT LS       0.97E-01    4.1                    -7415.8385876776
   275 OT CG       0.97E-01   10.6     0.00016423     -7415.8385879418 -1.77E-02
   276 OT LS       0.97E-01    4.1                    -7415.8559768257
   277 OT CG       0.97E-01   10.6     0.00016236     -7415.8559771541 -1.74E-02
   278 OT LS       0.97E-01    5.3                    -7415.8729294330
   279 OT CG       0.97E-01   16.0     0.00016041     -7415.8729295552 -1.70E-02
   280 OT LS       0.97E-01    4.2                    -7415.8895426407
   281 OT CG       0.97E-01   10.6     0.00015821     -7415.8895429104 -1.66E-02
   282 OT LS       0.98E-01    4.1                    -7415.9057840914
   283 OT CG       0.98E-01   10.6     0.00015639     -7415.9057844873 -1.62E-02
   284 OT LS       0.98E-01    4.1                    -7415.9216745569
   285 OT CG       0.98E-01   10.6     0.00015489     -7415.9216745839 -1.59E-02
   286 OT LS       0.98E-01    4.1                    -7415.9371832916
   287 OT CG       0.98E-01   10.6     0.00015341     -7415.9371837044 -1.55E-02
   288 OT LS       0.97E-01    4.1                    -7415.9523791787
   289 OT CG       0.97E-01   10.6     0.00015192     -7415.9523792042 -1.52E-02
   290 OT LS       0.97E-01    4.1                    -7415.9672329623
   291 OT CG       0.97E-01   10.6     0.00015011     -7415.9672331062 -1.49E-02
   292 OT LS       0.98E-01    4.1                    -7415.9818368884
   293 OT CG       0.98E-01   10.6     0.00014849     -7415.9818375928 -1.46E-02
   294 OT LS       0.98E-01    4.1                    -7415.9960800080
   295 OT CG       0.98E-01   10.8     0.00014686     -7415.9960801761 -1.42E-02
   296 OT LS       0.98E-01    4.1                    -7416.0100613443
   297 OT CG       0.98E-01   10.6     0.00014510     -7416.0100614944 -1.40E-02
   298 OT LS       0.98E-01    4.1                    -7416.0237413825
   299 OT CG       0.98E-01   10.6     0.00014357     -7416.0237414619 -1.37E-02
   300 OT LS       0.98E-01    4.1                    -7416.0371239225
   301 OT CG       0.98E-01   10.6     0.00014228     -7416.0371239281 -1.34E-02
   302 OT LS       0.97E-01    4.1                    -7416.0501833204
   303 OT CG       0.97E-01   10.6     0.00014073     -7416.0501838844 -1.31E-02
   304 OT LS       0.98E-01    4.1                    -7416.0629948886
   305 OT CG       0.98E-01   10.6     0.00013929     -7416.0629949680 -1.28E-02
   306 OT LS       0.98E-01    4.1                    -7416.0755387346
   307 OT CG       0.98E-01   10.6     0.00013768     -7416.0755387363 -1.25E-02
   308 OT LS       0.98E-01    4.1                    -7416.0878314641
   309 OT CG       0.98E-01   10.6     0.00013645     -7416.0878315947 -1.23E-02
   310 OT LS       0.98E-01    4.1                    -7416.0998805843
   311 OT CG       0.98E-01   10.7     0.00013489     -7416.0998806437 -1.20E-02
   312 OT LS       0.98E-01    4.1                    -7416.1117135263
   313 OT CG       0.98E-01   10.6     0.00013382     -7416.1117137850 -1.18E-02
   314 OT LS       0.98E-01    4.1                    -7416.1233827896
   315 OT CG       0.98E-01   10.6     0.00013237     -7416.1233828311 -1.17E-02
   316 OT LS       0.98E-01    4.1                    -7416.1347926094
   317 OT CG       0.98E-01   10.6     0.00013119     -7416.1347926113 -1.14E-02
   318 OT LS       0.98E-01    4.1                    -7416.1459699617
   319 OT CG       0.98E-01   10.6     0.00012980     -7416.1459700505 -1.12E-02
   320 OT LS       0.98E-01    4.1                    -7416.1568716190
   321 OT CG       0.98E-01   10.6     0.00012848     -7416.1568717836 -1.09E-02
   322 OT LS       0.98E-01    4.1                    -7416.1675608956
   323 OT CG       0.98E-01   10.6     0.00012706     -7416.1675608994 -1.07E-02
   324 OT LS       0.98E-01    4.1                    -7416.1780372894
   325 OT CG       0.98E-01   10.6     0.00012564     -7416.1780373448 -1.05E-02
   326 OT LS       0.98E-01    4.1                    -7416.1882789075
   327 OT CG       0.98E-01   10.8     0.00012445     -7416.1882789077 -1.02E-02
   328 OT LS       0.98E-01    4.1                    -7416.1983291169
   329 OT CG       0.98E-01   10.6     0.00012318     -7416.1983291169 -1.01E-02
   330 OT LS       0.98E-01    4.1                    -7416.2082012948
   331 OT CG       0.98E-01   10.6     0.00012223     -7416.2082013626 -9.87E-03
   332 OT LS       0.98E-01    4.1                    -7416.2178793742
   333 OT CG       0.98E-01   10.6     0.00012083     -7416.2178795526 -9.68E-03
   334 OT LS       0.98E-01    4.1                    -7416.2273317762
   335 OT CG       0.98E-01   10.6     0.00011944     -7416.2273317790 -9.45E-03
   336 OT LS       0.98E-01    4.1                    -7416.2366226343
   337 OT CG       0.98E-01   10.6     0.00011806     -7416.2366229425 -9.29E-03
   338 OT LS       0.98E-01    4.1                    -7416.2457149067
   339 OT CG       0.98E-01   10.6     0.00011713     -7416.2457149269 -9.09E-03
   340 OT LS       0.98E-01    4.1                    -7416.2546207785
   341 OT CG       0.98E-01   10.6     0.00011588     -7416.2546209844 -8.91E-03
   342 OT LS       0.98E-01    4.1                    -7416.2633433296
   343 OT CG       0.98E-01   10.6     0.00011459     -7416.2633433332 -8.72E-03
   344 OT LS       0.98E-01    4.2                    -7416.2718970466
   345 OT CG       0.98E-01   12.2     0.00011348     -7416.2718971103 -8.55E-03
   346 OT LS       0.98E-01    4.1                    -7416.2802681045
   347 OT CG       0.98E-01   10.6     0.00011258     -7416.2802681462 -8.37E-03
   348 OT LS       0.98E-01    4.1                    -7416.2884639691
   349 OT CG       0.98E-01   10.6     0.00011156     -7416.2884641808 -8.20E-03
   350 OT LS       0.98E-01    4.1                    -7416.2965004972
   351 OT CG       0.98E-01   10.6     0.00011019     -7416.2965005122 -8.04E-03
   352 OT LS       0.98E-01    4.1                    -7416.3044047960
   353 OT CG       0.98E-01   10.6     0.00010902     -7416.3044053037 -7.90E-03
   354 OT LS       0.99E-01    4.1                    -7416.3121780952
   355 OT CG       0.99E-01   10.6     0.00010821     -7416.3121782356 -7.77E-03
   356 OT LS       0.98E-01    4.1                    -7416.3197943936
   357 OT CG       0.98E-01   10.6     0.00010737     -7416.3197946018 -7.62E-03
   358 OT LS       0.98E-01    5.3                    -7416.3272566212
   359 OT CG       0.98E-01   16.1     0.00010617     -7416.3272567976 -7.46E-03
   360 OT LS       0.98E-01    4.1                    -7416.3345938043
   361 OT CG       0.98E-01   10.6     0.00010515     -7416.3345940165 -7.34E-03
   362 OT LS       0.98E-01    4.1                    -7416.3417940477
   363 OT CG       0.98E-01   10.6     0.00010419     -7416.3417940482 -7.20E-03
   364 OT LS       0.98E-01    4.1                    -7416.3488643407
   365 OT CG       0.98E-01   10.6     0.00010316     -7416.3488643416 -7.07E-03
   366 OT LS       0.98E-01    4.1                    -7416.3557954198
   367 OT CG       0.98E-01   10.6     0.00010221     -7416.3557954198 -6.93E-03
   368 OT LS       0.98E-01    4.1                    -7416.3625994907
   369 OT CG       0.98E-01   10.6     0.00010123     -7416.3625994906 -6.80E-03
   370 OT LS       0.98E-01    4.1                    -7416.3692670840
   371 OT CG       0.98E-01   10.6     0.00010045     -7416.3692670954 -6.67E-03
   372 OT LS       0.99E-01    4.1                    -7416.3758562187
   373 OT CG       0.99E-01   10.6     0.00009968     -7416.3758563094 -6.59E-03
   374 OT LS       0.99E-01    4.1                    -7416.3823394060
   375 OT CG       0.99E-01   10.8     0.00009872     -7416.3823394088 -6.48E-03
   376 OT LS       0.98E-01    4.1                    -7416.3886983510
   377 OT CG       0.98E-01   10.6     0.00009807     -7416.3886983510 -6.36E-03
   378 OT LS       0.98E-01    4.1                    -7416.3949359598
   379 OT CG       0.98E-01   10.6     0.00009731     -7416.3949361951 -6.24E-03
   380 OT LS       0.98E-01    4.1                    -7416.4011006813
   381 OT CG       0.98E-01   10.6     0.00009635     -7416.4011007647 -6.16E-03
   382 OT LS       0.99E-01    4.1                    -7416.4071631579
   383 OT CG       0.99E-01   10.6     0.00009551     -7416.4071632266 -6.06E-03
   384 OT LS       0.99E-01    4.1                    -7416.4131193530
   385 OT CG       0.99E-01   10.6     0.00009478     -7416.4131193535 -5.96E-03
   386 OT LS       0.99E-01    4.1                    -7416.4189820308
   387 OT CG       0.99E-01   10.6     0.00009391     -7416.4189820337 -5.86E-03
   388 OT LS       0.99E-01    4.1                    -7416.4247445088
   389 OT CG       0.99E-01   10.6     0.00009338     -7416.4247445185 -5.76E-03
   390 OT LS       0.98E-01    4.1                    -7416.4304175918
   391 OT CG       0.98E-01   10.6     0.00009236     -7416.4304176941 -5.67E-03
   392 OT LS       0.99E-01    4.3                    -7416.4360013323
   393 OT CG       0.99E-01   10.6     0.00009160     -7416.4360015442 -5.58E-03
   394 OT LS       0.99E-01    4.1                    -7416.4414938832
   395 OT CG       0.99E-01   10.6     0.00009086     -7416.4414938835 -5.49E-03
   396 OT LS       0.99E-01    4.1                    -7416.4468908304
   397 OT CG       0.99E-01   10.6     0.00009024     -7416.4468908399 -5.40E-03
   398 OT LS       0.99E-01    4.1                    -7416.4522051312
   399 OT CG       0.99E-01   10.6     0.00008962     -7416.4522051471 -5.31E-03
   400 OT LS       0.98E-01    4.1                    -7416.4574132720
   401 OT CG       0.98E-01   10.6     0.00008883     -7416.4574134768 -5.21E-03
   402 OT LS       0.98E-01    4.1                    -7416.4625598405
   403 OT CG       0.98E-01   10.6     0.00008806     -7416.4625600035 -5.15E-03
   404 OT LS       0.99E-01    4.1                    -7416.4676312425
   405 OT CG       0.99E-01   10.6     0.00008743     -7416.4676312741 -5.07E-03
   406 OT LS       0.99E-01    4.1                    -7416.4726380119
   407 OT CG       0.99E-01   10.6     0.00008677     -7416.4726380249 -5.01E-03
   408 OT LS       0.99E-01    4.2                    -7416.4775615936
   409 OT CG       0.99E-01   10.7     0.00008615     -7416.4775616039 -4.92E-03
   410 OT LS       0.98E-01    4.1                    -7416.4823997267
   411 OT CG       0.98E-01   10.6     0.00008551     -7416.4823997827 -4.84E-03
   412 OT LS       0.99E-01    4.1                    -7416.4871719402
   413 OT CG       0.99E-01   10.6     0.00008486     -7416.4871719454 -4.77E-03
   414 OT LS       0.99E-01    4.1                    -7416.4918740330
   415 OT CG       0.99E-01   10.6     0.00008423     -7416.4918740349 -4.70E-03
   416 OT LS       0.99E-01    4.1                    -7416.4965098358
   417 OT CG       0.99E-01   10.6     0.00008364     -7416.4965098376 -4.64E-03
   418 OT LS       0.98E-01    4.1                    -7416.5010728490
   419 OT CG       0.98E-01   10.6     0.00008304     -7416.5010728609 -4.56E-03
   420 OT LS       0.98E-01    4.1                    -7416.5055718737
   421 OT CG       0.98E-01   10.6     0.00008259     -7416.5055718738 -4.50E-03
   422 OT LS       0.99E-01    4.1                    -7416.5100249491
   423 OT CG       0.99E-01   10.6     0.00008199     -7416.5100249498 -4.45E-03
   424 OT LS       0.99E-01    4.2                    -7416.5144157853
   425 OT CG       0.99E-01   12.2     0.00008143     -7416.5144157869 -4.39E-03
   426 OT LS       0.98E-01    4.1                    -7416.5187340151
   427 OT CG       0.98E-01   10.6     0.00008078     -7416.5187340516 -4.32E-03
   428 OT LS       0.99E-01    4.1                    -7416.5230000970
   429 OT CG       0.99E-01   10.6     0.00008019     -7416.5230001559 -4.27E-03
   430 OT LS       0.99E-01    4.1                    -7416.5272041994
   431 OT CG       0.99E-01   10.6     0.00007959     -7416.5272041994 -4.20E-03
   432 OT LS       0.99E-01    4.1                    -7416.5313508981
   433 OT CG       0.99E-01   10.6     0.00007892     -7416.5313509071 -4.15E-03
   434 OT LS       0.99E-01    4.1                    -7416.5354368843
   435 OT CG       0.99E-01   10.6     0.00007833     -7416.5354369042 -4.09E-03
   436 OT LS       0.99E-01    4.1                    -7416.5394485120
   437 OT CG       0.99E-01   10.9     0.00007788     -7416.5394485592 -4.01E-03
   438 OT LS       0.98E-01    4.7                    -7416.5434010396
   439 OT CG       0.98E-01   15.6     0.00007736     -7416.5434010909 -3.95E-03
   440 OT LS       0.98E-01    4.3                    -7416.5472967290
   441 OT CG       0.98E-01   10.6     0.00007687     -7416.5472967329 -3.90E-03
   442 OT LS       0.98E-01    4.1                    -7416.5511348639
   443 OT CG       0.98E-01   10.6     0.00007634     -7416.5511348824 -3.84E-03
   444 OT LS       0.98E-01    4.1                    -7416.5549283181
   445 OT CG       0.98E-01   10.6     0.00007578     -7416.5549283364 -3.79E-03
   446 OT LS       0.99E-01    4.1                    -7416.5586823432
   447 OT CG       0.99E-01   10.6     0.00007518     -7416.5586824102 -3.75E-03
   448 OT LS       0.99E-01    4.1                    -7416.5623952589
   449 OT CG       0.99E-01   10.6     0.00007469     -7416.5623953458 -3.71E-03
   450 OT LS       0.99E-01    4.1                    -7416.5660636945
   451 OT CG       0.99E-01   10.6     0.00007412     -7416.5660636984 -3.67E-03
   452 OT LS       0.99E-01    4.1                    -7416.5696786433
   453 OT CG       0.99E-01   10.6     0.00007366     -7416.5696786441 -3.61E-03
   454 OT LS       0.99E-01    4.1                    -7416.5732457908
   455 OT CG       0.99E-01   10.6     0.00007323     -7416.5732457934 -3.57E-03
   456 OT LS       0.99E-01    4.8                    -7416.5767562764
   457 OT CG       0.99E-01   10.6     0.00007289     -7416.5767563432 -3.51E-03
   458 OT LS       0.98E-01    4.1                    -7416.5802204633
   459 OT CG       0.98E-01   10.6     0.00007248     -7416.5802205181 -3.46E-03
   460 OT LS       0.98E-01    4.1                    -7416.5836262646
   461 OT CG       0.98E-01   10.6     0.00007190     -7416.5836263765 -3.41E-03
   462 OT LS       0.99E-01    4.1                    -7416.5870061866
   463 OT CG       0.99E-01   10.6     0.00007141     -7416.5870064195 -3.38E-03
   464 OT LS       0.99E-01    4.1                    -7416.5903345135
   465 OT CG       0.99E-01   10.6     0.00007094     -7416.5903345243 -3.33E-03
   466 OT LS       0.99E-01    4.1                    -7416.5936271915
   467 OT CG       0.99E-01   10.6     0.00007044     -7416.5936272151 -3.29E-03
   468 OT LS       0.99E-01    4.1                    -7416.5968687046
   469 OT CG       0.99E-01   10.6     0.00006989     -7416.5968687120 -3.24E-03
   470 OT LS       0.99E-01    4.1                    -7416.6000736523
   471 OT CG       0.99E-01   10.6     0.00006937     -7416.6000737102 -3.20E-03
   472 OT LS       0.99E-01    4.1                    -7416.6032322991
   473 OT CG       0.99E-01   10.8     0.00006895     -7416.6032322993 -3.16E-03
   474 OT LS       0.99E-01    4.1                    -7416.6063431435
   475 OT CG       0.99E-01   10.6     0.00006849     -7416.6063431770 -3.11E-03
   476 OT LS       0.99E-01    4.1                    -7416.6094103612
   477 OT CG       0.99E-01   10.6     0.00006807     -7416.6094103617 -3.07E-03
   478 OT LS       0.98E-01    4.1                    -7416.6124317958
   479 OT CG       0.98E-01   10.6     0.00006756     -7416.6124318208 -3.02E-03
   480 OT LS       0.99E-01    4.1                    -7416.6154167291
   481 OT CG       0.99E-01   10.6     0.00006723     -7416.6154167497 -2.98E-03
   482 OT LS       0.98E-01    4.1                    -7416.6183575082
   483 OT CG       0.98E-01   10.6     0.00006686     -7416.6183575804 -2.94E-03
   484 OT LS       0.98E-01    4.1                    -7416.6212586301
   485 OT CG       0.98E-01   10.6     0.00006628     -7416.6212586482 -2.90E-03
   486 OT LS       0.99E-01    4.1                    -7416.6241343806
   487 OT CG       0.99E-01   10.6     0.00006574     -7416.6241345967 -2.88E-03
   488 OT LS       0.99E-01    4.1                    -7416.6269738356
   489 OT CG       0.99E-01   10.8     0.00006535     -7416.6269738650 -2.84E-03
   490 OT LS       0.99E-01    4.1                    -7416.6297802846
   491 OT CG       0.99E-01   10.6     0.00006504     -7416.6297802850 -2.81E-03
   492 OT LS       0.99E-01    4.1                    -7416.6325426483
   493 OT CG       0.99E-01   10.6     0.00006473     -7416.6325427583 -2.76E-03
   494 OT LS       0.98E-01    4.1                    -7416.6352678082
   495 OT CG       0.98E-01   10.6     0.00006421     -7416.6352678522 -2.73E-03
   496 OT LS       0.99E-01    4.1                    -7416.6379638362
   497 OT CG       0.99E-01   10.6     0.00006369     -7416.6379639139 -2.70E-03
   498 OT LS       0.99E-01    4.1                    -7416.6406166752
   499 OT CG       0.99E-01   10.6     0.00006332     -7416.6406166753 -2.65E-03
   500 OT LS       0.98E-01    4.1                    -7416.6432295325

  Leaving inner SCF loop after reaching   500 steps.


  Electronic density on regular grids:      -3277.9999970964        0.0000029036
  Core density on regular grids:             3277.9999998092       -0.0000001908
  Total charge density on r-space grids:        0.0000027129
  Total charge density g-space grids:           0.0000027129

  Overlap energy of the core charge distribution:               0.00000823483210
  Self energy of the core charge distribution:             -19088.11073027204111
  Core Hamiltonian energy:                                   5415.22457119754108
  Hartree energy:                                            7985.89172113990298
  Exchange-correlation energy:                              -1727.52418504889488
  Dispersion energy:                                           -2.12461478381243

  Total energy:                                             -7416.64322953247392

  outer SCF iter =    1 RMS gradient =   0.63E-04 energy =      -7416.6432295325

  ----------------------------------- OT ---------------------------------------
  Minimizer      : CG                  : conjugate gradient
  Preconditioner : FULL_ALL            : diagonalization, state selective
  Precond_solver : DEFAULT
  Line search    : 2PNT                : 2 energies, one gradient
  stepsize       :    0.15000000                  energy_gap     :    0.00100000
  eps_taylor     :   0.10000E-15                  max_taylor     :             4
  ----------------------------------- OT ---------------------------------------

  Step     Update method      Time    Convergence         Total energy    Change
  ------------------------------------------------------------------------------
     1 OT CG       0.15E+00   46.8     0.00042812     -7416.6432295611 -2.61E-03
     2 OT LS       0.25E+00    3.9                    -7416.8976854078
     3 OT CG       0.25E+00   10.5     0.00002343     -7416.9451045258 -3.02E-01
     4 OT LS       0.64E-01    3.9                    -7416.9434236903
     5 OT CG       0.64E-01   10.5     0.00000776     -7416.9453400263 -2.36E-04
     6 OT LS       0.71E-01    3.9                    -7416.9453684225
     7 OT CG       0.71E-01   10.5     0.00000270     -7416.9453687033 -2.87E-05
     8 OT LS       0.12E+00    3.9                    -7416.9453736380
     9 OT CG       0.12E+00   10.5     0.00000111     -7416.9453747211 -6.02E-06
    10 OT LS       0.94E-01    3.9                    -7416.9453754122
    11 OT CG       0.94E-01   10.5     0.00000045     -7416.9453754895 -7.68E-07

  *** SCF run converged in    11 steps ***


  Electronic density on regular grids:      -3277.9999970964        0.0000029036
  Core density on regular grids:             3277.9999998092       -0.0000001908
  Total charge density on r-space grids:        0.0000027129
  Total charge density g-space grids:           0.0000027129

  Overlap energy of the core charge distribution:               0.00000823483210
  Self energy of the core charge distribution:             -19088.11073027204111
  Core Hamiltonian energy:                                   5414.84183483974266
  Hartree energy:                                            7986.00598004607855
  Exchange-correlation energy:                              -1727.55785355433409
  Dispersion energy:                                           -2.12461478381243

  Total energy:                                             -7416.94537548953576

  outer SCF iter =    2 RMS gradient =   0.45E-06 energy =      -7416.9453754895
  outer SCF loop converged in   2 iterations or  511 steps


 ENERGY| Total FORCE_EVAL ( QS ) energy (a.u.):            -7416.945375627264184


 ATOMIC FORCES in [a.u.]

 # Atom   Kind   Element          X              Y              Z
      1      1      Ti          0.00000000     0.00000000     0.00000000
      2      2      Si          0.00000000     0.00000000     0.00000000
      3      2      Si          0.00000000     0.00000000     0.00000000
      4      2      Si          0.00000000     0.00000000     0.00000000
      5      2      Si          0.00000000     0.00000000     0.00000000
      6      2      Si          0.00000000     0.00000000     0.00000000
      7      2      Si          0.00000000     0.00000000     0.00000000
      8      2      Si          0.00000000     0.00000000     0.00000000
      9      2      Si          0.00000000     0.00000000     0.00000000
     10      2      Si          0.00000000     0.00000000     0.00000000
     11      2      Si          0.00000000     0.00000000     0.00000000
     12      2      Si          0.00000000     0.00000000     0.00000000
     13      2      Si          0.00000000     0.00000000     0.00000000
     14      2      Si          0.00000000     0.00000000     0.00000000
     15      2      Si          0.00000000     0.00000000     0.00000000
     16      2      Si          0.00000000     0.00000000     0.00000000
     17      2      Si          0.00000000     0.00000000     0.00000000
     18      2      Si          0.00000000     0.00000000     0.00000000
     19      2      Si          0.00000000     0.00000000     0.00000000
     20      2      Si          0.00000000     0.00000000     0.00000000
     21      2      Si          0.00000000     0.00000000     0.00000000
     22      2      Si          0.00000000     0.00000000     0.00000000
     23      2      Si          0.00000000     0.00000000     0.00000000
     24      2      Si          0.00000000     0.00000000     0.00000000
     25      2      Si          0.00000000     0.00000000     0.00000000
     26      2      Si          0.00000000     0.00000000     0.00000000
     27      2      Si          0.00000000     0.00000000     0.00000000
     28      2      Si          0.00000000     0.00000000     0.00000000
     29      2      Si          0.00000000     0.00000000     0.00000000
     30      2      Si          0.00000000     0.00000000     0.00000000
     31      2      Si          0.00000000     0.00000000     0.00000000
     32      2      Si          0.00000000     0.00000000     0.00000000
     33      2      Si          0.00000000     0.00000000     0.00000000
     34      2      Si          0.00000000     0.00000000     0.00000000
     35      2      Si          0.00000000     0.00000000     0.00000000
     36      2      Si          0.00000000     0.00000000     0.00000000
     37      2      Si          0.00000000     0.00000000     0.00000000
     38      2      Si          0.00000000     0.00000000     0.00000000
     39      2      Si          0.00000000     0.00000000     0.00000000
     40      2      Si          0.00000000     0.00000000     0.00000000
     41      2      Si          0.00000000     0.00000000     0.00000000
     42      2      Si          0.00000000     0.00000000     0.00000000
     43      2      Si          0.00000000     0.00000000     0.00000000
     44      2      Si          0.00000000     0.00000000     0.00000000
     45      2      Si          0.00000000     0.00000000     0.00000000
     46      2      Si          0.00000000     0.00000000     0.00000000
     47      2      Si          0.00000000     0.00000000     0.00000000
     48      2      Si          0.00000000     0.00000000     0.00000000
     49      2      Si          0.00000000     0.00000000     0.00000000
     50      2      Si          0.00000000     0.00000000     0.00000000
     51      2      Si          0.00000000     0.00000000     0.00000000
     52      2      Si          0.00000000     0.00000000     0.00000000
     53      2      Si          0.00000000     0.00000000     0.00000000
     54      2      Si          0.00000000     0.00000000     0.00000000
     55      2      Si          0.00000000     0.00000000     0.00000000
     56      2      Si          0.00000000     0.00000000     0.00000000
     57      2      Si          0.00000000     0.00000000     0.00000000
     58      2      Si          0.00000000     0.00000000     0.00000000
     59      2      Si          0.00000000     0.00000000     0.00000000
     60      2      Si          0.00000000     0.00000000     0.00000000
     61      2      Si          0.00000000     0.00000000     0.00000000
     62      2      Si          0.00000000     0.00000000     0.00000000
     63      2      Si          0.00000000     0.00000000     0.00000000
     64      2      Si          0.00000000     0.00000000     0.00000000
     65      2      Si          0.00000000     0.00000000     0.00000000
     66      2      Si          0.00000000     0.00000000     0.00000000
     67      2      Si          0.00000000     0.00000000     0.00000000
     68      2      Si          0.00000000     0.00000000     0.00000000
     69      2      Si          0.00000000     0.00000000     0.00000000
     70      2      Si          0.00000000     0.00000000     0.00000000
     71      2      Si          0.00000000     0.00000000     0.00000000
     72      2      Si          0.00000000     0.00000000     0.00000000
     73      2      Si          0.00000000     0.00000000     0.00000000
     74      2      Si          0.00000000     0.00000000     0.00000000
     75      2      Si          0.00000000     0.00000000     0.00000000
     76      2      Si          0.00000000     0.00000000     0.00000000
     77      2      Si          0.00000000     0.00000000     0.00000000
     78      2      Si          0.00000000     0.00000000     0.00000000
     79      2      Si          0.00000000     0.00000000     0.00000000
     80      2      Si          0.00000000     0.00000000     0.00000000
     81      2      Si          0.00000000     0.00000000     0.00000000
     82      2      Si          0.00000000     0.00000000     0.00000000
     83      2      Si          0.00000000     0.00000000     0.00000000
     84      2      Si          0.00000000     0.00000000     0.00000000
     85      2      Si          0.00000000     0.00000000     0.00000000
     86      2      Si          0.00000000     0.00000000     0.00000000
     87      2      Si          0.00000000     0.00000000     0.00000000
     88      2      Si          0.00000000     0.00000000     0.00000000
     89      2      Si          0.00000000     0.00000000     0.00000000
     90      2      Si          0.00000000     0.00000000     0.00000000
     91      2      Si          0.00000000     0.00000000     0.00000000
     92      2      Si          0.00000000     0.00000000     0.00000000
     93      2      Si          0.00000000     0.00000000     0.00000000
     94      2      Si          0.00000000     0.00000000     0.00000000
     95      2      Si          0.00000000     0.00000000     0.00000000
     96      2      Si          0.00000000     0.00000000     0.00000000
     97      2      Si          0.00000000     0.00000000     0.00000000
     98      2      Si          0.00000000     0.00000000     0.00000000
     99      2      Si          0.00000000     0.00000000     0.00000000
    100      2      Si          0.00000000     0.00000000     0.00000000
    101      2      Si          0.00000000     0.00000000     0.00000000
    102      2      Si          0.00000000     0.00000000     0.00000000
    103      2      Si          0.00000000     0.00000000     0.00000000
    104      2      Si          0.00000000     0.00000000     0.00000000
    105      2      Si          0.00000000     0.00000000     0.00000000
    106      2      Si          0.00000000     0.00000000     0.00000000
    107      2      Si          0.00000000     0.00000000     0.00000000
    108      2      Si          0.00000000     0.00000000     0.00000000
    109      2      Si          0.00000000     0.00000000     0.00000000
    110      2      Si          0.00000000     0.00000000     0.00000000
    111      2      Si          0.00000000     0.00000000     0.00000000
    112      2      Si          0.00000000     0.00000000     0.00000000
    113      2      Si          0.00000000     0.00000000     0.00000000
    114      2      Si          0.00000000     0.00000000     0.00000000
    115      2      Si          0.00000000     0.00000000     0.00000000
    116      2      Si          0.00000000     0.00000000     0.00000000
    117      2      Si          0.00000000     0.00000000     0.00000000
    118      2      Si          0.00000000     0.00000000     0.00000000
    119      2      Si          0.00000000     0.00000000     0.00000000
    120      2      Si          0.00000000     0.00000000     0.00000000
    121      2      Si          0.00000000     0.00000000     0.00000000
    122      2      Si          0.00000000     0.00000000     0.00000000
    123      2      Si          0.00000000     0.00000000     0.00000000
    124      2      Si          0.00000000     0.00000000     0.00000000
    125      2      Si          0.00000000     0.00000000     0.00000000
    126      2      Si          0.00000000     0.00000000     0.00000000
    127      2      Si          0.00000000     0.00000000     0.00000000
    128      2      Si          0.00000000     0.00000000     0.00000000
    129      2      Si          0.00000000     0.00000000     0.00000000
    130      2      Si          0.00000000     0.00000000     0.00000000
    131      2      Si          0.00000000     0.00000000     0.00000000
    132      2      Si          0.00000000     0.00000000     0.00000000
    133      2      Si          0.00000000     0.00000000     0.00000000
    134      2      Si          0.00000000     0.00000000     0.00000000
    135      2      Si          0.00000000     0.00000000     0.00000000
    136      2      Si          0.00000000     0.00000000     0.00000000
    137      2      Si          0.00000000     0.00000000     0.00000000
    138      2      Si          0.00000000     0.00000000     0.00000000
    139      2      Si          0.00000000     0.00000000     0.00000000
    140      2      Si          0.00000000     0.00000000     0.00000000
    141      2      Si          0.00000000     0.00000000     0.00000000
    142      2      Si          0.00000000     0.00000000     0.00000000
    143      2      Si          0.00000000     0.00000000     0.00000000
    144      2      Si          0.00000000     0.00000000     0.00000000
    145      2      Si          0.00000000     0.00000000     0.00000000
    146      2      Si          0.00000000     0.00000000     0.00000000
    147      2      Si          0.00000000     0.00000000     0.00000000
    148      2      Si          0.00000000     0.00000000     0.00000000
    149      2      Si          0.00000000     0.00000000     0.00000000
    150      2      Si          0.00000000     0.00000000     0.00000000
    151      2      Si          0.00000000     0.00000000     0.00000000
    152      2      Si          0.00000000     0.00000000     0.00000000
    153      2      Si          0.00000000     0.00000000     0.00000000
    154      2      Si          0.00000000     0.00000000     0.00000000
    155      2      Si          0.00000000     0.00000000     0.00000000
    156      2      Si          0.00000000     0.00000000     0.00000000
    157      2      Si          0.00000000     0.00000000     0.00000000
    158      2      Si          0.00000000     0.00000000     0.00000000
    159      2      Si          0.00000000     0.00000000     0.00000000
    160      2      Si          0.00000000     0.00000000     0.00000000
    161      2      Si          0.00000000     0.00000000     0.00000000
    162      2      Si          0.00000000     0.00000000     0.00000000
    163      2      Si          0.00000000     0.00000000     0.00000000
    164      2      Si          0.00000000     0.00000000     0.00000000
    165      2      Si          0.00000000     0.00000000     0.00000000
    166      2      Si          0.00000000     0.00000000     0.00000000
    167      2      Si          0.00000000     0.00000000     0.00000000
    168      2      Si          0.00000000     0.00000000     0.00000000
    169      2      Si          0.00000000     0.00000000     0.00000000
    170      2      Si          0.00000000     0.00000000     0.00000000
    171      2      Si          0.00000000     0.00000000     0.00000000
    172      2      Si          0.00000000     0.00000000     0.00000000
    173      2      Si          0.00000000     0.00000000     0.00000000
    174      2      Si          0.00000000     0.00000000     0.00000000
    175      2      Si          0.00000000     0.00000000     0.00000000
    176      2      Si          0.00000000     0.00000000     0.00000000
    177      2      Si          0.00000000     0.00000000     0.00000000
    178      2      Si          0.00000000     0.00000000     0.00000000
    179      2      Si          0.00000000     0.00000000     0.00000000
    180      2      Si          0.00000000     0.00000000     0.00000000
    181      2      Si          0.00000000     0.00000000     0.00000000
    182      2      Si          0.00000000     0.00000000     0.00000000
    183      2      Si          0.00000000     0.00000000     0.00000000
    184      2      Si          0.00000000     0.00000000     0.00000000
    185      2      Si          0.00000000     0.00000000     0.00000000
    186      2      Si          0.00000000     0.00000000     0.00000000
    187      2      Si          0.00000000     0.00000000     0.00000000
    188      2      Si          0.00000000     0.00000000     0.00000000
    189      2      Si          0.00000000     0.00000000     0.00000000
    190      2      Si          0.00000000     0.00000000     0.00000000
    191      2      Si          0.00000000     0.00000000     0.00000000
    192      3      O           0.00000000     0.00000000     0.00000000
    193      3      O           0.00000000     0.00000000     0.00000000
    194      3      O           0.00000000     0.00000000     0.00000000
    195      3      O           0.00000000     0.00000000     0.00000000
    196      3      O           0.00000000     0.00000000     0.00000000
    197      3      O           0.00000000     0.00000000     0.00000000
    198      3      O           0.00000000     0.00000000     0.00000000
    199      3      O           0.00000000     0.00000000     0.00000000
    200      3      O           0.00000000     0.00000000     0.00000000
    201      3      O           0.00000000     0.00000000     0.00000000
    202      3      O           0.00000000     0.00000000     0.00000000
    203      3      O           0.00000000     0.00000000     0.00000000
    204      3      O           0.00000000     0.00000000     0.00000000
    205      3      O           0.00000000     0.00000000     0.00000000
    206      3      O           0.00000000     0.00000000     0.00000000
    207      3      O           0.00000000     0.00000000     0.00000000
    208      3      O           0.00000000     0.00000000     0.00000000
    209      3      O           0.00000000     0.00000000     0.00000000
    210      3      O           0.00000000     0.00000000     0.00000000
    211      3      O           0.00000000     0.00000000     0.00000000
    212      3      O           0.00000000     0.00000000     0.00000000
    213      3      O           0.00000000     0.00000000     0.00000000
    214      3      O           0.00000000     0.00000000     0.00000000
    215      3      O           0.00000000     0.00000000     0.00000000
    216      3      O           0.00000000     0.00000000     0.00000000
    217      3      O           0.00000000     0.00000000     0.00000000
    218      3      O           0.00000000     0.00000000     0.00000000
    219      3      O           0.00000000     0.00000000     0.00000000
    220      3      O           0.00000000     0.00000000     0.00000000
    221      3      O           0.00000000     0.00000000     0.00000000
    222      3      O           0.00000000     0.00000000     0.00000000
    223      3      O           0.00000000     0.00000000     0.00000000
    224      3      O           0.00000000     0.00000000     0.00000000
    225      3      O           0.00000000     0.00000000     0.00000000
    226      3      O           0.00000000     0.00000000     0.00000000
    227      3      O           0.00000000     0.00000000     0.00000000
    228      3      O           0.00000000     0.00000000     0.00000000
    229      3      O           0.00000000     0.00000000     0.00000000
    230      3      O           0.00000000     0.00000000     0.00000000
    231      3      O           0.00000000     0.00000000     0.00000000
    232      3      O           0.00000000     0.00000000     0.00000000
    233      3      O           0.00000000     0.00000000     0.00000000
    234      3      O           0.00000000     0.00000000     0.00000000
    235      3      O           0.00000000     0.00000000     0.00000000
    236      3      O           0.00000000     0.00000000     0.00000000
    237      3      O           0.00000000     0.00000000     0.00000000
    238      3      O           0.00000000     0.00000000     0.00000000
    239      3      O           0.00000000     0.00000000     0.00000000
    240      3      O           0.00000000     0.00000000     0.00000000
    241      3      O           0.00000000     0.00000000     0.00000000
    242      3      O           0.00000000     0.00000000     0.00000000
    243      3      O           0.00000000     0.00000000     0.00000000
    244      3      O           0.00000000     0.00000000     0.00000000
    245      3      O           0.00000000     0.00000000     0.00000000
    246      3      O           0.00000000     0.00000000     0.00000000
    247      3      O           0.00000000     0.00000000     0.00000000
    248      3      O           0.00000000     0.00000000     0.00000000
    249      3      O           0.00000000     0.00000000     0.00000000
    250      3      O           0.00000000     0.00000000     0.00000000
    251      3      O           0.00000000     0.00000000     0.00000000
    252      3      O           0.00000000     0.00000000     0.00000000
    253      3      O           0.00000000     0.00000000     0.00000000
    254      3      O           0.00000000     0.00000000     0.00000000
    255      3      O           0.00000000     0.00000000     0.00000000
    256      3      O           0.00000000     0.00000000     0.00000000
    257      3      O           0.00000000     0.00000000     0.00000000
    258      3      O           0.00000000     0.00000000     0.00000000
    259      3      O           0.00000000     0.00000000     0.00000000
    260      3      O           0.00000000     0.00000000     0.00000000
    261      3      O           0.00000000     0.00000000     0.00000000
    262      3      O           0.00000000     0.00000000     0.00000000
    263      3      O           0.00000000     0.00000000     0.00000000
    264      3      O           0.00000000     0.00000000     0.00000000
    265      3      O           0.00000000     0.00000000     0.00000000
    266      3      O           0.00000000     0.00000000     0.00000000
    267      3      O           0.00000000     0.00000000     0.00000000
    268      3      O           0.00000000     0.00000000     0.00000000
    269      3      O           0.00000000     0.00000000     0.00000000
    270      3      O           0.00000000     0.00000000     0.00000000
    271      3      O           0.00000000     0.00000000     0.00000000
    272      3      O           0.00000000     0.00000000     0.00000000
    273      3      O           0.00000000     0.00000000     0.00000000
    274      3      O           0.00000000     0.00000000     0.00000000
    275      3      O           0.00000000     0.00000000     0.00000000
    276      3      O           0.00000000     0.00000000     0.00000000
    277      3      O           0.00000000     0.00000000     0.00000000
    278      3      O           0.00000000     0.00000000     0.00000000
    279      3      O           0.00000000     0.00000000     0.00000000
    280      3      O           0.00000000     0.00000000     0.00000000
    281      3      O           0.00000000     0.00000000     0.00000000
    282      3      O           0.00000000     0.00000000     0.00000000
    283      3      O           0.00000000     0.00000000     0.00000000
    284      3      O           0.00000000     0.00000000     0.00000000
    285      3      O           0.00000000     0.00000000     0.00000000
    286      3      O           0.00000000     0.00000000     0.00000000
    287      3      O           0.00000000     0.00000000     0.00000000
    288      3      O           0.00000000     0.00000000     0.00000000
    289      3      O           0.00000000     0.00000000     0.00000000
    290      3      O           0.00000000     0.00000000     0.00000000
    291      3      O           0.00000000     0.00000000     0.00000000
    292      3      O           0.00000000     0.00000000     0.00000000
    293      3      O           0.00000000     0.00000000     0.00000000
    294      3      O           0.00000000     0.00000000     0.00000000
    295      3      O           0.00000000     0.00000000     0.00000000
    296      3      O           0.00000000     0.00000000     0.00000000
    297      3      O           0.00000000     0.00000000     0.00000000
    298      3      O           0.00000000     0.00000000     0.00000000
    299      3      O           0.00000000     0.00000000     0.00000000
    300      3      O           0.00000000     0.00000000     0.00000000
    301      3      O           0.00000000     0.00000000     0.00000000
    302      3      O           0.00000000     0.00000000     0.00000000
    303      3      O           0.00000000     0.00000000     0.00000000
    304      3      O           0.00000000     0.00000000     0.00000000
    305      3      O           0.00000000     0.00000000     0.00000000
    306      3      O           0.00000000     0.00000000     0.00000000
    307      3      O           0.00000000     0.00000000     0.00000000
    308      3      O           0.00000000     0.00000000     0.00000000
    309      3      O           0.00000000     0.00000000     0.00000000
    310      3      O           0.00000000     0.00000000     0.00000000
    311      3      O           0.00000000     0.00000000     0.00000000
    312      3      O           0.00000000     0.00000000     0.00000000
    313      3      O           0.00000000     0.00000000     0.00000000
    314      3      O           0.00000000     0.00000000     0.00000000
    315      3      O           0.00000000     0.00000000     0.00000000
    316      3      O           0.00000000     0.00000000     0.00000000
    317      3      O           0.00000000     0.00000000     0.00000000
    318      3      O           0.00000000     0.00000000     0.00000000
    319      3      O           0.00000000     0.00000000     0.00000000
    320      3      O           0.00000000     0.00000000     0.00000000
    321      3      O           0.00000000     0.00000000     0.00000000
    322      3      O           0.00000000     0.00000000     0.00000000
    323      3      O           0.00000000     0.00000000     0.00000000
    324      3      O           0.00000000     0.00000000     0.00000000
    325      3      O           0.00000000     0.00000000     0.00000000
    326      3      O           0.00000000     0.00000000     0.00000000
    327      3      O           0.00000000     0.00000000     0.00000000
    328      3      O           0.00000000     0.00000000     0.00000000
    329      3      O           0.00000000     0.00000000     0.00000000
    330      3      O           0.00000000     0.00000000     0.00000000
    331      3      O           0.00000000     0.00000000     0.00000000
    332      3      O           0.00000000     0.00000000     0.00000000
    333      3      O           0.00000000     0.00000000     0.00000000
    334      3      O           0.00000000     0.00000000     0.00000000
    335      3      O           0.00000000     0.00000000     0.00000000
    336      3      O           0.00000000     0.00000000     0.00000000
    337      3      O           0.00000000     0.00000000     0.00000000
    338      3      O           0.00000000     0.00000000     0.00000000
    339      3      O           0.00000000     0.00000000     0.00000000
    340      3      O           0.00000000     0.00000000     0.00000000
    341      3      O           0.00000000     0.00000000     0.00000000
    342      3      O           0.00000000     0.00000000     0.00000000
    343      3      O           0.00000000     0.00000000     0.00000000
    344      3      O           0.00000000     0.00000000     0.00000000
    345      3      O           0.00000000     0.00000000     0.00000000
    346      3      O           0.00000000     0.00000000     0.00000000
    347      3      O           0.00000000     0.00000000     0.00000000
    348      3      O           0.00000000     0.00000000     0.00000000
    349      3      O           0.00000000     0.00000000     0.00000000
    350      3      O           0.00000000     0.00000000     0.00000000
    351      3      O           0.00000000     0.00000000     0.00000000
    352      3      O           0.00000000     0.00000000     0.00000000
    353      3      O           0.00000000     0.00000000     0.00000000
    354      3      O           0.00000000     0.00000000     0.00000000
    355      3      O           0.00000000     0.00000000     0.00000000
    356      3      O           0.00000000     0.00000000     0.00000000
    357      3      O           0.00000000     0.00000000     0.00000000
    358      3      O           0.00000000     0.00000000     0.00000000
    359      3      O           0.00000000     0.00000000     0.00000000
    360      3      O           0.00000000     0.00000000     0.00000000
    361      3      O           0.00000000     0.00000000     0.00000000
    362      3      O           0.00000000     0.00000000     0.00000000
    363      3      O           0.00000000     0.00000000     0.00000000
    364      3      O           0.00000000     0.00000000     0.00000000
    365      3      O           0.00000000     0.00000000     0.00000000
    366      3      O           0.00000000     0.00000000     0.00000000
    367      3      O           0.00000000     0.00000000     0.00000000
    368      3      O           0.00000000     0.00000000     0.00000000
    369      3      O           0.00000000     0.00000000     0.00000000
    370      3      O           0.00000000     0.00000000     0.00000000
    371      3      O           0.00000000     0.00000000     0.00000000
    372      3      O           0.00000000     0.00000000     0.00000000
    373      3      O           0.00000000     0.00000000     0.00000000
    374      3      O           0.00000000     0.00000000     0.00000000
    375      3      O           0.00000000     0.00000000     0.00000000
    376      3      O           0.00000000     0.00000000     0.00000000
    377      3      O           0.00000000     0.00000000     0.00000000
    378      3      O           0.00000000     0.00000000     0.00000000
    379      3      O           0.00000000     0.00000000     0.00000000
    380      3      O           0.00000000     0.00000000     0.00000000
    381      3      O           0.00000000     0.00000000     0.00000000
[...]
 flops   391 x   263 x   670         566618056640       0.0%    100.0%      0.0%
 flops   416 x   256 x   135         586407444480       0.0%    100.0%      0.0%
 flops    26 x    32 x    13         639856908288       0.0%    100.0%      0.0%
 flops    13 x    32 x    26         639856908288       0.0%    100.0%      0.0%
 flops   391 x   256 x   160         653234503680       0.0%    100.0%      0.0%
 flops   391 x   263 x   128         715836143616       0.0%    100.0%      0.0%
 flops  2023 x   256 x   135         778851763200       0.0%    100.0%      0.0%
 flops     5 x    13 x   128         836970833920       0.0%    100.0%      0.0%
 flops   391 x   263 x   662         839778701856       0.0%    100.0%      0.0%
 flops    13 x     5 x   128         841633628160       0.0%    100.0%      0.0%
 flops   416 x   288 x   135         989562562560       0.0%    100.0%      0.0%
 flops   416 x   263 x   160        1071008040960       0.0%    100.0%      0.0%
 flops   391 x   288 x   160        1102333224960       0.0%    100.0%      0.0%
 flops   391 x   256 x   670        1103073935360       0.0%    100.0%      0.0%
 flops   391 x   263 x   675        1141693099200       0.0%    100.0%      0.0%
 flops  2020 x   263 x   135        1198442871000       0.0%    100.0%      0.0%
 flops  2023 x   263 x   670        1306116449120       0.0%    100.0%      0.0%
 flops  2023 x   288 x   135        1314312350400       0.0%    100.0%      0.0%
 flops   391 x   256 x   128        1393566941184       0.0%    100.0%      0.0%
 flops  2023 x   263 x   160        1422486206400       0.0%    100.0%      0.0%
 flops   391 x   256 x   662        1634854354944       0.0%    100.0%      0.0%
 flops   416 x   263 x   670        1808540497920       0.0%    100.0%      0.0%
 flops   391 x   288 x   670        1861437265920       0.0%    100.0%      0.0%
 flops  2023 x   263 x   662        1935781543248       0.0%    100.0%      0.0%
 flops   416 x   256 x   160        2085004247040       0.0%    100.0%      0.0%
 flops   391 x   256 x   675        2222611660800       0.0%    100.0%      0.0%
 flops    13 x    13 x   135        2253848174370       0.0%    100.0%      0.0%
 flops   416 x   263 x   128        2284817154048       0.0%    100.0%      0.0%
 flops  2020 x   256 x   135        2333090304000       0.0%    100.0%      0.0%
 flops   391 x   288 x   128        2351644213248       0.0%    100.0%      0.0%
 flops  2023 x   256 x   670        2542705786880       0.0%    100.0%      0.0%
 flops  2023 x   263 x   675        2631727173600       0.0%    100.0%      0.0%
 flops   416 x   263 x   662        2680418976768       0.0%    100.0%      0.0%
 flops   391 x   288 x   662        2758816723968       0.0%    100.0%      0.0%
 flops  2023 x   256 x   160        2769250713600       0.0%    100.0%      0.0%
 flops  2023 x   263 x   128        3034637240320       0.0%    100.0%      0.0%
 flops   416 x   288 x   160        3518444666880       0.0%    100.0%      0.0%
 flops   416 x   256 x   670        3520808878080       0.0%    100.0%      0.0%
 flops   416 x   263 x   675        3644074137600       0.0%    100.0%      0.0%
 flops   391 x   288 x   675        3750657177600       0.0%    100.0%      0.0%
 flops  2023 x   256 x   662        3768517681152       0.0%    100.0%      0.0%
 flops  2020 x   263 x   670        3912538646400       0.0%    100.0%      0.0%
 flops  2020 x   288 x   135        3937089888000       0.0%    100.0%      0.0%
 flops  2020 x   263 x   160        4261130208000       0.0%    100.0%      0.0%
 flops  2023 x   288 x   670        4290816015360       0.0%    100.0%      0.0%
 flops   416 x   256 x   128        4448009060352       0.0%    100.0%      0.0%
 flops  2023 x   288 x   160        4673110579200       0.0%    100.0%      0.0%
 flops  2023 x   256 x   675        5123362406400       0.0%    100.0%      0.0%
 flops    13 x    32 x     5        5202554423040       0.0%    100.0%      0.0%
 flops     5 x    32 x    13        5202554423040       0.0%    100.0%      0.0%
 flops   416 x   256 x   662        5218154053632       0.0%    100.0%      0.0%
 flops  2020 x   263 x   662        5798732650560       0.0%    100.0%      0.0%
 flops  2023 x   256 x   128        5907734855680       0.0%    100.0%      0.0%
 flops   416 x   288 x   670        5941364981760       0.0%    100.0%      0.0%
 flops  2023 x   288 x   662        6359373586944       0.0%    100.0%      0.0%
 flops   416 x   256 x   675        7094167142400       0.0%    100.0%      0.0%
 flops   416 x   288 x   128        7506015289344       0.0%    100.0%      0.0%
 flops  2020 x   256 x   670        7616805273600       0.0%    100.0%      0.0%
 flops  2020 x   263 x   675        7883473392000       0.0%    100.0%      0.0%
 flops    13 x    13 x   160        8013682397760       0.0%    100.0%      0.0%
 flops  2020 x   256 x   160        8295432192000       0.0%    100.0%      0.0%
 flops  2023 x   288 x   675        8645674060800       0.0%    100.0%      0.0%
 flops   416 x   288 x   662        8805634965504       0.0%    100.0%      0.0%
 flops  2020 x   263 x   128        9090411110400       0.0%    100.0%      0.0%
 flops  2023 x   288 x   128        9969302568960       0.0%    100.0%      0.0%
 flops  2020 x   256 x   662       11288787517440       0.0%    100.0%      0.0%
 flops   416 x   288 x   675       11971407052800       0.0%    100.0%      0.0%
 flops  2020 x   288 x   670       12853358899200       0.0%    100.0%      0.0%
 flops  2020 x   288 x   160       13998541824000       0.0%    100.0%      0.0%
 flops  2020 x   256 x   675       15347294208000       0.0%    100.0%      0.0%
 flops    13 x    13 x   128       17095855781888       0.0%    100.0%      0.0%
 flops  2020 x   256 x   128       17696922009600       0.0%    100.0%      0.0%
 flops  2020 x   288 x   662       19049828935680       0.0%    100.0%      0.0%
 flops  2020 x   288 x   675       25898558976000       0.0%    100.0%      0.0%
 flops  2020 x   288 x   128       29863555891200       0.0%    100.0%      0.0%
 flops    13 x    32 x    13      105412179300480       0.0%    100.0%      0.0%
 flops inhomo. stacks              73740968376768     100.0%      0.0%      0.0%
 flops total                       586.054784E+12      12.6%     87.4%      0.0%
 flops max/rank                     25.856432E+12      12.6%     87.4%      0.0%
 matmuls inhomo. stacks                    213984     100.0%      0.0%      0.0%
 matmuls total                        13575337716       0.0%    100.0%      0.0%
 number of processed stacks              18829128       1.1%     98.9%      0.0%
 average stack size                                     1.0     729.3       0.0
 marketing flops                   987.205749E+12
 -------------------------------------------------------------------------------
 # multiplications                          11803
 max memory usage/rank             896.512000E+06
 # max total images/rank                        3
 # max 3D layers                                1
 # MPI messages exchanged                 5382168
 MPI messages size (bytes):
  total size                         9.403015E+12
  min size                           0.000000E+00
  max size                          11.264064E+06
  average size                       1.747068E+06
 MPI breakdown and total messages size (bytes):
             size <=      128               29892                        0
       128 < size <=     8192                   0                        0
      8192 < size <=    32768                1128                 36962304
     32768 < size <=   131072                 564                 22001640
    131072 < size <=  4194304             5130744            7011136358296
   4194304 < size <= 16777216              219840            2393870332960
  16777216 < size                               0                        0
 -------------------------------------------------------------------------------

 *** WARNING in dbcsr_mm.F:295 :: Using a non-square number of MPI ranks ***
 *** might lead to poor performance. Used ranks: 24 Suggested: 25 49     ***

 -------------------------------------------------------------------------------
 -                                                                             -
 -                      DBCSR MESSAGE PASSING PERFORMANCE                      -
 -                                                                             -
 -------------------------------------------------------------------------------
 ROUTINE             CALLS      AVE VOLUME [Bytes]
 MP_Group             1352
 MP_Bcast              124                     12.
 MP_Allreduce        59648                    118.
 MP_Alltoall         52117                 749223.
 MP_Wait            660968
 MP_ISend           543352                 788587.
 MP_IRecv           534638                 794292.
 MP_Memory         1088006
 -------------------------------------------------------------------------------

 MEMORY| Estimated peak process memory [MiB]                                 855

 -------------------------------------------------------------------------------
 -                                                                             -
 -                         MESSAGE PASSING PERFORMANCE                         -
 -                                                                             -
 -------------------------------------------------------------------------------

 ROUTINE             CALLS      AVE VOLUME [Bytes]
 MP_Group                5
 MP_Bcast            35120                 240875.
 MP_Allreduce        92912                   1245.
 MP_Sync                 5
 MP_Alltoall         14106               33904045.
 MP_SendRecv          4140                  16145.
 MP_ISendRecv        88182                 127093.
 MP_Wait            174073
 MP_ISend            76672                 804618.
 MP_IRecv            76672                 804785.
 MP_Recv              6075                1399640.
 -------------------------------------------------------------------------------


 -------------------------------------------------------------------------------
 -                                                                             -
 -                           R E F E R E N C E S                               -
 -                                                                             -
 -------------------------------------------------------------------------------
 
 CP2K version 7.1, the CP2K developers group (2019).
 CP2K is freely available from https://www.cp2k.org/ .

 Schuett, Ole; Messmer, Peter; Hutter, Juerg; VandeVondele, Joost. 
 Electronic Structure Calculations on Graphics Processing Units, John
 Wiley & Sons, Ltd, 173-190 (2016). 
 GPU-Accelerated Sparse Matrix-Matrix Multiplication for
 Linear Scaling Density Functional Theory.
 https://dx.doi.org/10.1002/9781118670712.ch8

 Borstnik, U; VandeVondele, J; Weber, V; Hutter, J. 
 PARALLEL COMPUTING, 40 (5-6), 47-58 (2014). 
 Sparse matrix multiplication: The distributed block-compressed sparse
 row library.
 https://dx.doi.org/10.1016/j.parco.2014.03.012

 Hutter, J; Iannuzzi, M; Schiffmann, F; VandeVondele, J. 
 WIREs Comput Mol Sci., 4 (1), 15-25 (2014). 
 CP2K: atomistic simulations of condensed matter systems.
 https://dx.doi.org/10.1002/wcms.1159

 Grimme, S; Ehrlich, S; Goerigk, L. 
 JOURNAL OF COMPUTATIONAL CHEMISTRY, 32, 1456 (2011). 
 Effect of the damping function in dispersion corrected density functional theory.
 https://dx.doi.org/10.1002/jcc.21759

 Grimme, S; Antony, J; Ehrlich, S; Krieg, H. 
 JOURNAL OF CHEMICAL PHYSICS, 132 (15), 154104 (2010). 
 A consistent and accurate ab initio parametrization of density
 functional dispersion correction (DFT-D) for the 94 elements H-Pu.
 https://dx.doi.org/10.1063/1.3382344

 VandeVondele, J; Hutter, J. 
 JOURNAL OF CHEMICAL PHYSICS, 127 (11), 114105 (2007). 
 Gaussian basis sets for accurate calculations on molecular systems in
 gas and condensed phases.
 https://dx.doi.org/10.1063/1.2770708

 Krack, M. 
 THEORETICAL CHEMISTRY ACCOUNTS, 114 (1-3), 145-152 (2005). 
 Pseudopotentials for H to Kr optimized for gradient-corrected
 exchange-correlation functionals.
 https://dx.doi.org/10.1007/s00214-005-0655-y

 VandeVondele, J; Krack, M; Mohamed, F; Parrinello, M; Chassaing, T;
 Hutter, J. COMPUTER PHYSICS COMMUNICATIONS, 167 (2), 103-128 (2005). 
 QUICKSTEP: Fast and accurate density functional calculations using a
 mixed Gaussian and plane waves approach.
 https://dx.doi.org/10.1016/j.cpc.2004.12.014

 Frigo, M; Johnson, SG. 
 PROCEEDINGS OF THE IEEE, 93 (2), 216-231 (2005). 
 The design and implementation of FFTW3.
 https://dx.doi.org/10.1109/JPROC.2004.840301

 Kolafa, J. 
 JOURNAL OF COMPUTATIONAL CHEMISTRY, 25 (3), 335-342 (2004). 
 Time-reversible always stable predictor-corrector method for molecular dynamics of polarizable molecules.
 https://dx.doi.org/10.1002/jcc.10385

 VandeVondele, J; Hutter, J. 
 JOURNAL OF CHEMICAL PHYSICS, 118 (10), 4365-4369 (2003). 
 An efficient orbital transformation method for electronic structure
 calculations.
 https://dx.doi.org/10.1063/1.1543154

 Hartwigsen, C; Goedecker, S; Hutter, J. 
 PHYSICAL REVIEW B, 58 (7), 3641-3662 (1998). 
 Relativistic separable dual-space Gaussian pseudopotentials from H to Rn.
 https://dx.doi.org/10.1103/PhysRevB.58.3641

 Lippert, G; Hutter, J; Parrinello, M. 
 MOLECULAR PHYSICS, 92 (3), 477-487 (1997). 
 A hybrid Gaussian and plane wave density functional scheme.
 https://dx.doi.org/10.1080/002689797170220

 Perdew, JP; Burke, K; Ernzerhof, M. 
 PHYSICAL REVIEW LETTERS, 77 (18), 3865-3868 (1996). 
 Generalized gradient approximation made simple.
 https://dx.doi.org/10.1103/PhysRevLett.77.3865

 Goedecker, S; Teter, M; Hutter, J. 
 PHYSICAL REVIEW B, 54 (3), 1703-1710 (1996). 
 Separable dual-space Gaussian pseudopotentials.
 https://dx.doi.org/10.1103/PhysRevB.54.1703


 -------------------------------------------------------------------------------
 -                                                                             -
 -                                T I M I N G                                  -
 -                                                                             -
 -------------------------------------------------------------------------------
 SUBROUTINE                       CALLS  ASD         SELF TIME        TOTAL TIME
                                MAXIMUM       AVERAGE  MAXIMUM  AVERAGE  MAXIMUM
 CP2K                                 1  1.0    0.021    0.024 8085.963 8085.981
 cp_geo_opt                           1  2.0    0.000    0.000 8084.642 8084.660
 geoopt_bfgs                          1  3.0    0.246    0.280 8084.642 8084.659
 cp_eval_at                          46  4.0    0.010    0.077 8049.162 8049.228
 qs_forces                           45  5.0    0.014    0.016 7986.761 7986.778
 qs_energies                         46  6.0    0.004    0.006 7630.495 7630.778
 scf_env_do_scf                      46  7.0    0.003    0.005 7326.207 7326.281
 scf_env_do_scf_inner_loop          776  8.0    0.029    0.069 5718.926 5726.078
 rebuild_ks_matrix                  821  9.8    0.004    0.004 2880.492 2885.067
 qs_ks_build_kohn_sham_matrix       821 10.8    0.106    0.118 2880.488 2885.063
 qs_ks_update_qs_env                823  9.0    0.006    0.007 2564.314 2568.414
 dbcsr_multiply_generic           11803 13.7    0.888    0.982 2025.194 2049.353
 qs_scf_new_mos                     776  9.0    0.005    0.012 1935.378 1942.933
 qs_scf_loop_do_ot                  776 10.0    0.005    0.007 1935.373 1942.921
 ot_scf_mini                        776 11.0    0.026    0.033 1808.104 1810.844
 multiply_cannon                  11803 14.7    2.298    2.611 1679.134 1752.987
 init_scf_loop                       47  8.0    0.002    0.003 1598.898 1598.986
 qs_rho_update_rho                  822  9.0    0.005    0.008 1512.680 1516.040
 calculate_rho_elec                 822 10.0 1037.795 1080.122 1512.675 1516.035
 multiply_cannon_multrec         141636 15.7 1422.988 1513.928 1423.116 1514.052
 sum_up_and_integrate               456 11.7    2.245    2.306 1384.714 1384.985
 integrate_v_rspace                 456 12.7 1181.285 1197.653 1382.468 1382.765
 prepare_preconditioner              47  9.0    0.000    0.001 1336.085 1337.031
 make_preconditioner                 47 10.0    0.001    0.002 1283.791 1284.413
 make_full_all                       47 11.0    0.078    0.111 1237.029 1237.104
 qs_vxc_create                      821 11.8    0.015    0.017 1228.538 1228.993
 pw_transfer                      13643 13.3    1.042    1.108 1151.543 1164.002
 fft_wrap_pw1pw2                  12001 14.4    0.147    0.161 1133.834 1146.488
 fft_wrap_pw1pw2_180               6889 15.6   97.423   99.643 1094.178 1105.575
 ot_mini                            776 12.0    0.006    0.022 1090.160 1097.183
 cp_fm_syevd                        686 13.7    0.011    0.016  931.686  934.567
 cp_fm_syevd_base                   686 14.7  931.674  934.555  931.674  934.555
 xc_rho_set_and_dset_create         821 13.8    6.858    6.925  873.751  878.432
 fft3d_ps                         12001 16.4  473.109  488.085  849.568  863.776
 xc_vxc_pw_create                   456 12.7   23.674   25.875  838.304  838.751
 apply_preconditioner_dbcsr         458 14.0    0.001    0.001  621.778  634.429
 apply_all                          458 15.0    1.126    1.185  621.777  634.428
 ot_new_cg_direction                411 13.0    0.008    0.011  573.606  573.621
 qs_ot_get_derivative               411 13.0    0.005    0.006  510.640  515.525
 density_rs2pw                      822 11.0    0.056    0.068  428.135  459.693
 xc_functional_eval                 821 14.8    0.009    0.010  398.679  403.188
 pbe_lda_eval                       821 15.8  398.671  403.179  398.671  403.179
 xc_exc_calc                        365 13.0    1.542    1.550  390.220  390.233
 qs_ks_update_qs_env_forces          45  6.0    0.000    0.000  319.082  319.540
 qs_ot_get_p                        823 11.9    0.005    0.007  300.524  315.813
 mp_waitall_1                    758369 17.1  225.337  269.696  225.337  269.696
 rs_pw_transfer                    6481 13.0    0.097    0.115  215.418  248.506
 x_to_yz                           6021 18.1  182.217  184.304  244.050  247.734
 qs_ot_get_orbitals                 776 12.0    0.005    0.007  229.388  233.463
 init_scf_run                        46  7.0    0.001    0.003  231.514  231.521
 scf_env_initial_rho_setup           46  8.0    0.000    0.001  231.513  231.520
 wfi_extrapolate                     46  9.0    0.007    0.009  227.174  227.182
 make_m2s                         23606 14.7    0.853    0.972  224.514  226.708
 cp_gemm                            757 10.2    0.003    0.004  212.713  213.826
 cp_gemm_fm_gemm                    757 11.2    0.002    0.003  212.710  213.824
 cp_fm_gemm                         757 12.2  212.707  213.822  212.707  213.822
 qs_ot_get_derivative_diag          249 14.0    0.008    0.009  206.984  210.750
 multiply_cannon_metrocomm3      141636 15.7    0.357    0.406  146.920  199.242
 potential_pw2rs                    456 13.7    0.176    0.257  168.085  168.373
 -------------------------------------------------------------------------------

 The number of warnings for this run is : 2
 
 -------------------------------------------------------------------------------
  **** **** ******  **  PROGRAM ENDED AT                 2022-07-05 21:21:03.174
 ***** ** ***  *** **   PROGRAM RAN ON             node0182.palmetto.clemson.edu
 **    ****   ******    PROGRAM RAN BY                                   xiutinc
 ***** **    ** ** **   PROGRAM PROCESS ID                               1682101
  **** **  *******  **  PROGRAM STOPPED IN  /scratch1/xiutinc/CP2K-5305505.pbs02
