 DBCSR| CPU Multiplication driver                                           XSMM (U)
 DBCSR| Multrec recursion limit                                              512 (U)
 DBCSR| Multiplication stack size                                           1000 (D)
 DBCSR| Maximum elements for images                                    UNLIMITED (U)
 DBCSR| Multiplicative factor virtual images                                   1 (U)
 DBCSR| Use multiplication densification                                       T (D)
 DBCSR| Multiplication size stacks                                             3 (U)
 DBCSR| Use memory pool for CPU allocation                                     F (U)
 DBCSR| Number of 3D layers                                               SINGLE (U)
 DBCSR| Use MPI memory allocation                                              F (U)
 DBCSR| Use RMA algorithm                                                      F (U)
 DBCSR| Use Communication thread                                               T (U)
 DBCSR| Communication thread load                                             87 (D)
 DBCSR| MPI: My process id                                                     0
 DBCSR| MPI: Number of processes                                              24
 DBCSR| OMP: Current number of threads                                         1
 DBCSR| OMP: Max number of threads                                             1
 DBCSR| Split modifier for TAS multiplication algorithm                  1.0E+00 (U)


  **** **** ******  **  PROGRAM STARTED AT               2025-01-28 14:24:19.609
 ***** ** ***  *** **   PROGRAM STARTED ON                     c0142.ten.osc.edu
 **    ****   ******    PROGRAM STARTED BY                               xiutinc
 ***** **    ** ** **   PROGRAM PROCESS ID                               1595358
  **** **  *******  **  PROGRAM STARTED IN /fs/scratch/PAS2536/xiutinc/386247.ad
                                           l02_01_02_propanol

 CP2K| version string:                                       CP2K version 2023.2
 CP2K| source code revision number:                                  git:65cca6c
 CP2K| cp2kflags: omp libint fftw3 libxc parallel scalapack xsmm plumed2 mkl sir
 CP2K|            ius
 CP2K| is freely available from                            https://www.cp2k.org/
 CP2K| Program compiled at                          Mon Oct 14 13:01:09 EDT 2024
 CP2K| Program compiled on                             cardinal-rw02.ten.osc.edu
 CP2K| Program compiled for                       linux-rhel9-sapphirerapids-gcc
 CP2K| Data directory path    /apps/spack/0.21/cardinal/linux-rhel9-sapphirerapi
 CP2K| Input file name                                             intE10_aq.inp

 GLOBAL| Force Environment number                                              1
 GLOBAL| Basis set file name                                          BASIS_file
 GLOBAL| Potential file name                                     POTENTIALS_file
 GLOBAL| MM Potential file name                                     MM_POTENTIAL
 GLOBAL| Coordinate file name                                    ./intE10_aq.xyz
 GLOBAL| Method name                                                        CP2K
 GLOBAL| Project name                                                  intE10_aq
 GLOBAL| Run type                                                        GEO_OPT
 GLOBAL| FFT library                                                       FFTW3
 GLOBAL| Diagonalization library                                       ScaLAPACK
 GLOBAL| DGEMM library                                                      BLAS
 GLOBAL| Orthonormality check for eigenvectors                          DISABLED
 GLOBAL| Matrix multiplication library                                 ScaLAPACK
 GLOBAL| All-to-all communication in single precision                          F
 GLOBAL| FFTs using library dependent lengths                                  F
 GLOBAL| Grid backend                                                       AUTO
 GLOBAL| Global print level                                                  LOW
 GLOBAL| MPI I/O enabled                                                       T
 GLOBAL| Total number of message passing processes                            24
 GLOBAL| Number of threads for this process                                    1
 GLOBAL| This output is from process                                           0
 GLOBAL| Stack size for threads created by OpenMP (OMP_STACKSIZE)        default
 GLOBAL| CPU model name                            Intel(R) Xeon(R) CPU Max 9470
 GLOBAL| CPUID                                                              1003

 MEMORY| system memory details [Kb]
 MEMORY|                        rank 0           min           max       average
 MEMORY| MemTotal            662060536     662060536     662060536     662060536
 MEMORY| MemFree             614916364     614916364     614916868     614916689
 MEMORY| Buffers                320424        320424        320424        320424
 MEMORY| Cached                5050592       5050536       5050592       5050552
 MEMORY| Slab                  1479504       1479372       1479504       1479420
 MEMORY| SReclaimable           428344        428344        428344        428344
 MEMORY| MemLikelyFree       620715724     620715724     620716172     620716009


 *******************************************************************************
 *******************************************************************************
 **                                                                           **
 **     #####                         ##              ##                      **
 **    ##   ##            ##          ##              ##                      **
 **   ##     ##                       ##            ######                    **
 **   ##     ##  ##   ##  ##   #####  ##  ##   ####   ##    #####    #####    **
 **   ##     ##  ##   ##  ##  ##      ## ##   ##      ##   ##   ##  ##   ##   **
 **   ##  ## ##  ##   ##  ##  ##      ####     ###    ##   ######   ######    **
 **    ##  ###   ##   ##  ##  ##      ## ##      ##   ##   ##       ##        **
 **     #######   #####   ##   #####  ##  ##  ####    ##    #####   ##        **
 **           ##                                                    ##        **
 **                                                                           **
 **                                                ... make the atoms dance   **
 **                                                                           **
 **            Copyright (C) by CP2K developers group (2000-2023)             **
 **                      J. Chem. Phys. 152, 194103 (2020)                    **
 **                                                                           **
 *******************************************************************************


 TOTAL NUMBERS AND MAXIMUM NUMBERS

  Total number of            - Atomic kinds:                                   5
                             - Atoms:                                        642
                             - Shell sets:                                   642
                             - Shells:                                      3121
                             - Primitive Cartesian functions:               3021
                             - Cartesian basis functions:                   8591
                             - Spherical basis functions:                   7991

  Maximum angular momentum of- Orbital basis functions:                        3
                             - Local part of the GTH pseudopotential:          2
                             - Non-local part of the GTH pseudopotential:      3


 SCF PARAMETERS         Density guess:                                   RESTART
                        --------------------------------------------------------
                        max_scf:                                             500
                        max_scf_history:                                       0
                        max_diis:                                              4
                        --------------------------------------------------------
                        eps_scf:                                        1.00E-06
                        eps_scf_history:                                0.00E+00
                        eps_diis:                                       1.00E-01
                        eps_eigval:                                     1.00E-05
                        --------------------------------------------------------
                        level_shift [a.u.]:                             0.000000
                        --------------------------------------------------------
                        Outer loop SCF in use 
                        No variables optimised in outer loop
                        eps_scf                                         1.00E-06
                        max_scf                                               50
                        No outer loop optimization
                        step_size                                       5.00E-01

 BFGS| Use rational function optimization for step estimation:                NO
 BFGS| Use model Hessian for initial guess:                                  YES
 BFGS| Restart Hessian:                                                       NO
 BFGS| Trust radius:                                                       0.472

 *******************************************************************************
 ***                     STARTING GEOMETRY OPTIMIZATION                      ***
 ***                                   BFGS                                  ***
 *******************************************************************************

 Number of electrons:                                                       3228
 Number of occupied orbitals:                                               1614
 Number of molecular orbitals:                                              1614

 Number of orbital functions:                                               7991
 Number of independent orbital functions:                                   7991

 Extrapolation method: initial_guess

 *** WARNING in qs_initial_guess.F:305 :: User requested to restart the   ***
 *** wavefunction from the file named: intE10_aq-RESTART.wfn. This file   ***
 *** does not exist. Please check the existence of the file or change     ***
 *** properly the value of the keyword WFN_RESTART_FILE_NAME. Calculation ***
 *** continues using ATOMIC GUESS.                                        ***



 SCF WAVEFUNCTION OPTIMIZATION

  ----------------------------------- OT ---------------------------------------
  Minimizer      : CG                  : conjugate gradient
  Preconditioner : FULL_ALL            : diagonalization, state selective
  Precond_solver : DEFAULT
  Line search    : 2PNT                : 2 energies, one gradient
  stepsize       :    0.15000000                  energy_gap     :    0.00100000
  eps_taylor     :   0.10000E-15                  max_taylor     :             4
  ----------------------------------- OT ---------------------------------------

  Step     Update method      Time    Convergence         Total energy    Change
  ------------------------------------------------------------------------------
     1 OT CG       0.15E+00   21.9     0.01520570     -7028.6966969269 -7.03E+03
     2 OT LS       0.75E-01    2.4                    -7026.8490497936
     3 OT CG       0.75E-01    5.5     0.05853944     -7014.5991106207  1.41E+01
     4 OT LS       0.21E-01    2.4                    -5730.3445760451
     5 OT CG       0.21E-01    5.5     0.02953479     -6893.9738604151  1.21E+02
     6 OT LS       0.13E-01    2.4                    -6921.0341775540
     7 OT CG       0.13E-01    5.5     0.01525824     -6932.6852915764 -3.87E+01
     8 OT LS       0.53E-01    2.4                    -6969.7821407888
     9 OT CG       0.53E-01    5.5     0.01091341     -7050.7181306087 -1.18E+02
    10 OT LS       0.92E-01    2.4                    -7109.1836966677
    11 OT CG       0.92E-01    5.5     0.01339944     -7125.0691602269 -7.44E+01
    12 OT LS       0.44E-01    2.4                    -7113.5965113736
    13 OT CG       0.44E-01    5.5     0.00677564     -7169.6787143658 -4.46E+01
    14 OT LS       0.10E+00    2.4                    -7187.3642075595
    15 OT CG       0.10E+00    5.5     0.00609237     -7192.1941458972 -2.25E+01
    16 OT LS       0.58E-01    2.4                    -7197.9502390688
    17 OT CG       0.58E-01    5.5     0.00456567     -7203.1681936211 -1.10E+01
    18 OT LS       0.81E-01    2.4                    -7213.1827689283
    19 OT CG       0.81E-01    5.5     0.00444318     -7213.6466280626 -1.05E+01
    20 OT LS       0.46E-01    2.4                    -7215.7835449014
    21 OT CG       0.46E-01    5.5     0.00273349     -7218.5957600661 -4.95E+00
    22 OT LS       0.87E-01    2.4                    -7221.8283880499
    23 OT CG       0.87E-01    5.5     0.00230458     -7222.8842007553 -4.29E+00
    24 OT LS       0.69E-01    2.4                    -7225.2056213812
    25 OT CG       0.69E-01    5.5     0.00199505     -7225.4320719831 -2.55E+00
    26 OT LS       0.89E-01    2.4                    -7227.5475783220
    27 OT CG       0.89E-01    5.5     0.00198100     -7227.6526123900 -2.22E+00
    28 OT LS       0.87E-01    2.4                    -7229.8365824545
    29 OT CG       0.87E-01    5.5     0.00194946     -7229.8348691140 -2.18E+00
    30 OT LS       0.10E+00    2.4                    -7232.3053641953
    31 OT CG       0.10E+00    5.5     0.00195755     -7232.3304597633 -2.50E+00
    32 OT LS       0.86E-01    2.4                    -7234.3211577183
    33 OT CG       0.86E-01    5.5     0.00183192     -7234.3750590741 -2.04E+00
    34 OT LS       0.95E-01    2.4                    -7236.4135082017
    35 OT CG       0.95E-01    5.5     0.00173479     -7236.4345793109 -2.06E+00
    36 OT LS       0.82E-01    2.4                    -7238.0090910987
    37 OT CG       0.82E-01    5.5     0.00149313     -7238.0492643509 -1.61E+00
    38 OT LS       0.10E+00    2.4                    -7239.4593860096
    39 OT CG       0.10E+00    5.5     0.00144752     -7239.5141499052 -1.46E+00
    40 OT LS       0.89E-01    2.4                    -7240.6756816046
    41 OT CG       0.89E-01    5.5     0.00129932     -7240.7008819552 -1.19E+00
    42 OT LS       0.11E+00    2.4                    -7241.8473549879
    43 OT CG       0.11E+00    5.5     0.00128160     -7241.8820176577 -1.18E+00
    44 OT LS       0.94E-01    2.4                    -7242.8404954300
    45 OT CG       0.94E-01    5.5     0.00121403     -7242.8667113648 -9.85E-01
    46 OT LS       0.10E+00    2.4                    -7243.8353527800
    47 OT CG       0.10E+00    5.5     0.00112580     -7243.8444168097 -9.78E-01
    48 OT LS       0.11E+00    2.4                    -7244.7054603573
    49 OT CG       0.11E+00    5.5     0.00112166     -7244.7057839906 -8.61E-01
    50 OT LS       0.10E+00    2.4                    -7245.5249931049
    51 OT CG       0.10E+00    5.6     0.00105557     -7245.5268716838 -8.21E-01
    52 OT LS       0.11E+00    2.4                    -7246.2955181975
    53 OT CG       0.11E+00    5.5     0.00100149     -7246.2981905123 -7.71E-01
    54 OT LS       0.11E+00    2.4                    -7246.9839588510
    55 OT CG       0.11E+00    5.5     0.00095103     -7246.9840669794 -6.86E-01
    56 OT LS       0.11E+00    2.4                    -7247.6049105436
    57 OT CG       0.11E+00    5.5     0.00091780     -7247.6049101734 -6.21E-01
    58 OT LS       0.10E+00    2.4                    -7248.1710256724
    59 OT CG       0.10E+00    5.5     0.00086360     -7248.1713066072 -5.66E-01
    60 OT LS       0.11E+00    2.4                    -7248.6908906156
    61 OT CG       0.11E+00    5.5     0.00080597     -7248.6914554173 -5.20E-01
    62 OT LS       0.11E+00    2.4                    -7249.1591345691
    63 OT CG       0.11E+00    5.5     0.00077707     -7249.1595258162 -4.68E-01
    64 OT LS       0.11E+00    2.4                    -7249.5806449697
    65 OT CG       0.11E+00    5.5     0.00074260     -7249.5810358842 -4.22E-01
    66 OT LS       0.11E+00    2.4                    -7249.9661633601
    67 OT CG       0.11E+00    5.5     0.00070286     -7249.9661633314 -3.85E-01
    68 OT LS       0.11E+00    2.4                    -7250.3125137017
    69 OT CG       0.11E+00    5.6     0.00066118     -7250.3125136652 -3.46E-01
    70 OT LS       0.11E+00    4.6                    -7250.6254195706
    71 OT CG       0.11E+00    5.5     0.00062413     -7250.6255371571 -3.13E-01
    72 OT LS       0.11E+00    2.4                    -7250.9055514971
    73 OT CG       0.11E+00    5.5     0.00059612     -7250.9055606905 -2.80E-01
    74 OT LS       0.11E+00    2.4                    -7251.1575811335
    75 OT CG       0.11E+00    5.5     0.00056779     -7251.1576337901 -2.52E-01
    76 OT LS       0.11E+00    2.4                    -7251.3862998100
    77 OT CG       0.11E+00    5.5     0.00053810     -7251.3863007429 -2.29E-01
    78 OT LS       0.11E+00    2.4                    -7251.5958855508
    79 OT CG       0.11E+00    5.5     0.00051081     -7251.5959759752 -2.10E-01
    80 OT LS       0.11E+00    2.4                    -7251.7851322588
    81 OT CG       0.11E+00    5.5     0.00049133     -7251.7851330890 -1.89E-01
    82 OT LS       0.11E+00    2.4                    -7251.9566353978
    83 OT CG       0.11E+00    5.5     0.00046660     -7251.9567180041 -1.72E-01
    84 OT LS       0.11E+00    2.4                    -7252.1127950702
    85 OT CG       0.11E+00    5.5     0.00044420     -7252.1128038221 -1.56E-01
    86 OT LS       0.11E+00    2.4                    -7252.2557429737
    87 OT CG       0.11E+00    5.5     0.00042508     -7252.2557632035 -1.43E-01
    88 OT LS       0.11E+00    2.4                    -7252.3874725558
    89 OT CG       0.11E+00    5.5     0.00041053     -7252.3874768819 -1.32E-01
    90 OT LS       0.11E+00    2.4                    -7252.5074266617
    91 OT CG       0.11E+00    5.5     0.00039052     -7252.5075068177 -1.20E-01
    92 OT LS       0.11E+00    2.4                    -7252.6191158574
    93 OT CG       0.11E+00    5.5     0.00037525     -7252.6192003590 -1.12E-01
    94 OT LS       0.11E+00    2.4                    -7252.7217386286
    95 OT CG       0.11E+00    5.5     0.00036054     -7252.7217405208 -1.03E-01
    96 OT LS       0.11E+00    2.5                    -7252.8163965569
    97 OT CG       0.11E+00    5.5     0.00034603     -7252.8163965902 -9.47E-02
    98 OT LS       0.11E+00    2.4                    -7252.9020531865
    99 OT CG       0.11E+00    5.5     0.00032923     -7252.9020848786 -8.57E-02
   100 OT LS       0.11E+00    2.4                    -7252.9819590334
   101 OT CG       0.11E+00    5.5     0.00031602     -7252.9820322819 -7.99E-02
   102 OT LS       0.11E+00    2.4                    -7253.0552172087
   103 OT CG       0.11E+00    5.5     0.00030413     -7253.0552193925 -7.32E-02
   104 OT LS       0.11E+00    2.4                    -7253.1229399267
   105 OT CG       0.11E+00    5.5     0.00029425     -7253.1229401536 -6.77E-02
   106 OT LS       0.11E+00    2.4                    -7253.1860418093
   107 OT CG       0.11E+00    5.5     0.00028401     -7253.1860438662 -6.31E-02
   108 OT LS       0.12E+00    2.4                    -7253.2458134577
   109 OT CG       0.12E+00    5.5     0.00027612     -7253.2458312223 -5.98E-02
   110 OT LS       0.11E+00    2.4                    -7253.3017660267
   111 OT CG       0.11E+00    5.5     0.00026899     -7253.3017711876 -5.59E-02
   112 OT LS       0.11E+00    2.4                    -7253.3543878317
   113 OT CG       0.11E+00    5.5     0.00026091     -7253.3543931726 -5.26E-02
   114 OT LS       0.11E+00    2.4                    -7253.4043528400
   115 OT CG       0.11E+00    5.5     0.00025419     -7253.4043560834 -5.00E-02
   116 OT LS       0.11E+00    2.4                    -7253.4522057043
   117 OT CG       0.11E+00    5.5     0.00024736     -7253.4522099800 -4.79E-02
   118 OT LS       0.11E+00    2.4                    -7253.4971515858
   119 OT CG       0.11E+00    5.5     0.00024148     -7253.4971544214 -4.49E-02
   120 OT LS       0.11E+00    2.4                    -7253.5402294367
   121 OT CG       0.11E+00    5.5     0.00023568     -7253.5402302065 -4.31E-02
   122 OT LS       0.11E+00    2.4                    -7253.5813537355
   123 OT CG       0.11E+00    5.5     0.00022984     -7253.5813537165 -4.11E-02
   124 OT LS       0.12E+00    2.4                    -7253.6205887763
   125 OT CG       0.12E+00    5.5     0.00022326     -7253.6205893753 -3.92E-02
   126 OT LS       0.12E+00    2.4                    -7253.6577537436
   127 OT CG       0.12E+00    5.6     0.00021833     -7253.6577543180 -3.72E-02
   128 OT LS       0.11E+00    2.4                    -7253.6929889382
   129 OT CG       0.11E+00    5.5     0.00021225     -7253.6929927104 -3.52E-02
   130 OT LS       0.11E+00    2.4                    -7253.7262745044
   131 OT CG       0.11E+00    5.5     0.00020670     -7253.7262744664 -3.33E-02
   132 OT LS       0.12E+00    2.4                    -7253.7580330430
   133 OT CG       0.12E+00    5.5     0.00020190     -7253.7580347127 -3.18E-02
   134 OT LS       0.11E+00    2.4                    -7253.7881821648
   135 OT CG       0.11E+00    5.5     0.00019758     -7253.7881829704 -3.01E-02
   136 OT LS       0.11E+00    2.4                    -7253.8168328369
   137 OT CG       0.11E+00    5.5     0.00019248     -7253.8168353539 -2.87E-02
   138 OT LS       0.12E+00    2.4                    -7253.8443123762
   139 OT CG       0.12E+00    5.5     0.00018804     -7253.8443151568 -2.75E-02
   140 OT LS       0.12E+00    2.4                    -7253.8706377697
   141 OT CG       0.12E+00    5.5     0.00018338     -7253.8706383756 -2.63E-02
   142 OT LS       0.12E+00    2.4                    -7253.8957094878
   143 OT CG       0.12E+00    5.5     0.00017928     -7253.8957094902 -2.51E-02
   144 OT LS       0.12E+00    2.4                    -7253.9195826295
   145 OT CG       0.12E+00    5.5     0.00017499     -7253.9195832781 -2.39E-02
   146 OT LS       0.12E+00    2.4                    -7253.9425526277
   147 OT CG       0.12E+00    5.5     0.00017086     -7253.9425547908 -2.30E-02
   148 OT LS       0.12E+00    2.4                    -7253.9642925158
   149 OT CG       0.12E+00    5.5     0.00016696     -7253.9642933602 -2.17E-02
   150 OT LS       0.12E+00    2.4                    -7253.9850417610
   151 OT CG       0.12E+00    5.5     0.00016377     -7253.9850417614 -2.07E-02
   152 OT LS       0.11E+00    2.4                    -7254.0046854162
   153 OT CG       0.11E+00    5.5     0.00015962     -7254.0046913484 -1.96E-02
   154 OT LS       0.11E+00    2.4                    -7254.0234721658
   155 OT CG       0.11E+00    5.5     0.00015548     -7254.0234729445 -1.88E-02
   156 OT LS       0.12E+00    2.4                    -7254.0413874955
   157 OT CG       0.12E+00    5.5     0.00015219     -7254.0413882627 -1.79E-02
   158 OT LS       0.11E+00    2.4                    -7254.0585106684
   159 OT CG       0.11E+00    5.5     0.00014854     -7254.0585108356 -1.71E-02
   160 OT LS       0.12E+00    2.4                    -7254.0748880280
   161 OT CG       0.12E+00    5.5     0.00014495     -7254.0748881585 -1.64E-02
   162 OT LS       0.12E+00    2.4                    -7254.0906265799
   163 OT CG       0.12E+00    5.5     0.00014164     -7254.0906281166 -1.57E-02
   164 OT LS       0.12E+00    2.4                    -7254.1056523749
   165 OT CG       0.12E+00    5.5     0.00013883     -7254.1056523727 -1.50E-02
   166 OT LS       0.12E+00    2.4                    -7254.1200303616
   167 OT CG       0.12E+00    5.5     0.00013647     -7254.1200306921 -1.44E-02
   168 OT LS       0.12E+00    2.4                    -7254.1338828645
   169 OT CG       0.12E+00    5.5     0.00013384     -7254.1338830609 -1.39E-02
   170 OT LS       0.12E+00    2.4                    -7254.1472316233
   171 OT CG       0.12E+00    5.5     0.00013143     -7254.1472317237 -1.33E-02
   172 OT LS       0.12E+00    2.5                    -7254.1600450163
   173 OT CG       0.12E+00    5.5     0.00012921     -7254.1600452105 -1.28E-02
   174 OT LS       0.12E+00    2.4                    -7254.1724498525
   175 OT CG       0.12E+00    5.5     0.00012703     -7254.1724498533 -1.24E-02
   176 OT LS       0.12E+00    2.4                    -7254.1844863027
   177 OT CG       0.12E+00    5.5     0.00012449     -7254.1844864310 -1.20E-02
   178 OT LS       0.12E+00    2.4                    -7254.1961830644
   179 OT CG       0.12E+00    5.5     0.00012263     -7254.1961849808 -1.17E-02
   180 OT LS       0.12E+00    2.4                    -7254.2075098284
   181 OT CG       0.12E+00    5.5     0.00012062     -7254.2075098696 -1.13E-02
   182 OT LS       0.12E+00    2.4                    -7254.2184401921
   183 OT CG       0.12E+00    5.5     0.00011870     -7254.2184403307 -1.09E-02
   184 OT LS       0.12E+00    2.4                    -7254.2290151053
   185 OT CG       0.12E+00    5.5     0.00011663     -7254.2290151096 -1.06E-02
   186 OT LS       0.12E+00    2.4                    -7254.2392463828
   187 OT CG       0.12E+00    5.6     0.00011518     -7254.2392464826 -1.02E-02
   188 OT LS       0.12E+00    2.4                    -7254.2491242628
   189 OT CG       0.12E+00    5.5     0.00011364     -7254.2491253162 -9.88E-03
   190 OT LS       0.12E+00    2.4                    -7254.2587151517
   191 OT CG       0.12E+00    5.5     0.00011188     -7254.2587152832 -9.59E-03
   192 OT LS       0.12E+00    2.4                    -7254.2680784717
   193 OT CG       0.12E+00    5.5     0.00011028     -7254.2680789669 -9.36E-03
   194 OT LS       0.12E+00    2.4                    -7254.2772139950
   195 OT CG       0.12E+00    5.5     0.00010877     -7254.2772142212 -9.14E-03
   196 OT LS       0.12E+00    2.4                    -7254.2860919588
   197 OT CG       0.12E+00    5.5     0.00010696     -7254.2860919791 -8.88E-03
   198 OT LS       0.12E+00    2.4                    -7254.2947279313
   199 OT CG       0.12E+00    5.5     0.00010522     -7254.2947281459 -8.64E-03
   200 OT LS       0.12E+00    2.4                    -7254.3030688949
   201 OT CG       0.12E+00    5.5     0.00010335     -7254.3030689119 -8.34E-03
   202 OT LS       0.12E+00    2.4                    -7254.3111054743
   203 OT CG       0.12E+00    5.5     0.00010183     -7254.3111054761 -8.04E-03
   204 OT LS       0.12E+00    2.4                    -7254.3188642764
   205 OT CG       0.12E+00    5.5     0.00010058     -7254.3188645953 -7.76E-03
   206 OT LS       0.12E+00    2.4                    -7254.3263799555
   207 OT CG       0.12E+00    5.5     0.00009924     -7254.3263803872 -7.52E-03
   208 OT LS       0.11E+00    2.4                    -7254.3336794478
   209 OT CG       0.11E+00    5.5     0.00009774     -7254.3336794723 -7.30E-03
   210 OT LS       0.12E+00    2.4                    -7254.3407726161
   211 OT CG       0.12E+00    5.5     0.00009615     -7254.3407726451 -7.09E-03
   212 OT LS       0.12E+00    2.4                    -7254.3476673164
   213 OT CG       0.12E+00    5.5     0.00009442     -7254.3476674083 -6.89E-03
   214 OT LS       0.12E+00    2.4                    -7254.3543552184
   215 OT CG       0.12E+00    5.5     0.00009263     -7254.3543554383 -6.69E-03
   216 OT LS       0.12E+00    2.4                    -7254.3608114226
   217 OT CG       0.12E+00    5.5     0.00009110     -7254.3608114993 -6.46E-03
   218 OT LS       0.12E+00    2.4                    -7254.3670684761
   219 OT CG       0.12E+00    5.5     0.00008980     -7254.3670685006 -6.26E-03
   220 OT LS       0.12E+00    2.4                    -7254.3731113577
   221 OT CG       0.12E+00    5.5     0.00008850     -7254.3731116239 -6.04E-03
   222 OT LS       0.12E+00    2.4                    -7254.3789776223
   223 OT CG       0.12E+00    5.5     0.00008715     -7254.3789776223 -5.87E-03
   224 OT LS       0.12E+00    2.4                    -7254.3846499543
   225 OT CG       0.12E+00    5.5     0.00008591     -7254.3846499904 -5.67E-03
   226 OT LS       0.12E+00    2.4                    -7254.3901260352
   227 OT CG       0.12E+00    5.5     0.00008426     -7254.3901262755 -5.48E-03
   228 OT LS       0.12E+00    2.4                    -7254.3954135681
   229 OT CG       0.12E+00    5.5     0.00008284     -7254.3954136296 -5.29E-03
   230 OT LS       0.12E+00    2.4                    -7254.4005482669
   231 OT CG       0.12E+00    5.5     0.00008130     -7254.4005483788 -5.13E-03
   232 OT LS       0.12E+00    2.4                    -7254.4055044746
   233 OT CG       0.12E+00    5.5     0.00008015     -7254.4055045023 -4.96E-03
   234 OT LS       0.12E+00    2.4                    -7254.4103361122
   235 OT CG       0.12E+00    5.5     0.00007893     -7254.4103361595 -4.83E-03
   236 OT LS       0.12E+00    2.4                    -7254.4150240764
   237 OT CG       0.12E+00    5.5     0.00007791     -7254.4150240765 -4.69E-03
   238 OT LS       0.12E+00    2.4                    -7254.4195703068
   239 OT CG       0.12E+00    5.5     0.00007671     -7254.4195703922 -4.55E-03
   240 OT LS       0.12E+00    2.4                    -7254.4239859428
   241 OT CG       0.12E+00    5.5     0.00007566     -7254.4239859600 -4.42E-03
   242 OT LS       0.12E+00    2.4                    -7254.4282653614
   243 OT CG       0.12E+00    5.5     0.00007443     -7254.4282654251 -4.28E-03
   244 OT LS       0.12E+00    2.4                    -7254.4324089481
   245 OT CG       0.12E+00    5.5     0.00007335     -7254.4324089491 -4.14E-03
   246 OT LS       0.12E+00    2.4                    -7254.4364347060
   247 OT CG       0.12E+00    5.5     0.00007234     -7254.4364347063 -4.03E-03
   248 OT LS       0.12E+00    2.4                    -7254.4403582747
   249 OT CG       0.12E+00    5.5     0.00007137     -7254.4403582941 -3.92E-03
   250 OT LS       0.12E+00    2.4                    -7254.4441752233
   251 OT CG       0.12E+00    5.5     0.00007043     -7254.4441752241 -3.82E-03
   252 OT LS       0.12E+00    2.4                    -7254.4479139316
   253 OT CG       0.12E+00    5.5     0.00006961     -7254.4479140554 -3.74E-03
   254 OT LS       0.12E+00    2.4                    -7254.4515446952
   255 OT CG       0.12E+00    5.5     0.00006875     -7254.4515448282 -3.63E-03
   256 OT LS       0.12E+00    2.4                    -7254.4550910968
   257 OT CG       0.12E+00    5.5     0.00006781     -7254.4550911033 -3.55E-03
   258 OT LS       0.12E+00    2.4                    -7254.4585515030
   259 OT CG       0.12E+00    5.5     0.00006700     -7254.4585515331 -3.46E-03
   260 OT LS       0.12E+00    2.4                    -7254.4619217567
   261 OT CG       0.12E+00    5.5     0.00006630     -7254.4619217749 -3.37E-03
   262 OT LS       0.12E+00    2.4                    -7254.4652083237
   263 OT CG       0.12E+00    5.5     0.00006544     -7254.4652083849 -3.29E-03
   264 OT LS       0.12E+00    2.4                    -7254.4684212561
   265 OT CG       0.12E+00    5.5     0.00006469     -7254.4684212945 -3.21E-03
   266 OT LS       0.12E+00    2.4                    -7254.4715688941
   267 OT CG       0.12E+00    5.5     0.00006404     -7254.4715689167 -3.15E-03
   268 OT LS       0.12E+00    2.4                    -7254.4746338037
   269 OT CG       0.12E+00    5.5     0.00006340     -7254.4746339399 -3.07E-03
   270 OT LS       0.12E+00    2.4                    -7254.4776376384
   271 OT CG       0.12E+00    5.5     0.00006255     -7254.4776376383 -3.00E-03
   272 OT LS       0.12E+00    2.4                    -7254.4805679937
   273 OT CG       0.12E+00    5.5     0.00006179     -7254.4805680113 -2.93E-03
   274 OT LS       0.12E+00    2.4                    -7254.4834370931
   275 OT CG       0.12E+00    5.5     0.00006118     -7254.4834371301 -2.87E-03
   276 OT LS       0.12E+00    2.4                    -7254.4862325056
   277 OT CG       0.12E+00    5.5     0.00006035     -7254.4862326365 -2.80E-03
   278 OT LS       0.12E+00    2.4                    -7254.4889807758
   279 OT CG       0.12E+00    5.5     0.00005961     -7254.4889810572 -2.75E-03
   280 OT LS       0.12E+00    2.4                    -7254.4916651530
   281 OT CG       0.12E+00    5.5     0.00005899     -7254.4916651617 -2.68E-03
   282 OT LS       0.12E+00    2.4                    -7254.4942852710
   283 OT CG       0.12E+00    5.5     0.00005837     -7254.4942853070 -2.62E-03
   284 OT LS       0.12E+00    2.4                    -7254.4968366615
   285 OT CG       0.12E+00    5.5     0.00005771     -7254.4968367527 -2.55E-03
   286 OT LS       0.12E+00    2.4                    -7254.4993375965
   287 OT CG       0.12E+00    5.5     0.00005702     -7254.4993376184 -2.50E-03
   288 OT LS       0.12E+00    2.4                    -7254.5017832780
   289 OT CG       0.12E+00    5.5     0.00005648     -7254.5017832897 -2.45E-03
   290 OT LS       0.12E+00    2.4                    -7254.5041745100
   291 OT CG       0.12E+00    5.5     0.00005585     -7254.5041745443 -2.39E-03
   292 OT LS       0.12E+00    2.4                    -7254.5065263929
   293 OT CG       0.12E+00    5.5     0.00005526     -7254.5065264612 -2.35E-03
   294 OT LS       0.12E+00    2.4                    -7254.5088370108
   295 OT CG       0.12E+00    5.5     0.00005462     -7254.5088370478 -2.31E-03
   296 OT LS       0.12E+00    2.4                    -7254.5110893918
   297 OT CG       0.12E+00    5.5     0.00005418     -7254.5110893991 -2.25E-03
   298 OT LS       0.12E+00    2.4                    -7254.5132859111
   299 OT CG       0.12E+00    5.5     0.00005345     -7254.5132861118 -2.20E-03
   300 OT LS       0.12E+00    2.4                    -7254.5154305336
   301 OT CG       0.12E+00    5.5     0.00005286     -7254.5154305466 -2.14E-03
   302 OT LS       0.12E+00    2.4                    -7254.5175258092
   303 OT CG       0.12E+00    5.5     0.00005231     -7254.5175258092 -2.10E-03
   304 OT LS       0.12E+00    2.4                    -7254.5195713010
   305 OT CG       0.12E+00    5.5     0.00005184     -7254.5195713186 -2.05E-03
   306 OT LS       0.12E+00    2.4                    -7254.5215794402
   307 OT CG       0.12E+00    5.5     0.00005123     -7254.5215794420 -2.01E-03
   308 OT LS       0.12E+00    2.5                    -7254.5235508043
   309 OT CG       0.12E+00    5.5     0.00005076     -7254.5235508491 -1.97E-03
   310 OT LS       0.12E+00    2.4                    -7254.5254964831
   311 OT CG       0.12E+00    5.5     0.00005024     -7254.5254965533 -1.95E-03
   312 OT LS       0.12E+00    2.4                    -7254.5274023534
   313 OT CG       0.12E+00    5.5     0.00004979     -7254.5274023525 -1.91E-03
   314 OT LS       0.12E+00    2.4                    -7254.5292708766
   315 OT CG       0.12E+00    5.5     0.00004937     -7254.5292708894 -1.87E-03
   316 OT LS       0.12E+00    2.4                    -7254.5310980711
   317 OT CG       0.12E+00    5.5     0.00004879     -7254.5310981277 -1.83E-03
   318 OT LS       0.12E+00    2.4                    -7254.5328971471
   319 OT CG       0.12E+00    5.5     0.00004844     -7254.5328972884 -1.80E-03
   320 OT LS       0.12E+00    2.4                    -7254.5346601128
   321 OT CG       0.12E+00    5.5     0.00004814     -7254.5346601747 -1.76E-03
   322 OT LS       0.12E+00    2.4                    -7254.5363976949
   323 OT CG       0.12E+00    5.5     0.00004784     -7254.5363977110 -1.74E-03
   324 OT LS       0.12E+00    2.4                    -7254.5381161547
   325 OT CG       0.12E+00    5.5     0.00004738     -7254.5381161592 -1.72E-03
   326 OT LS       0.12E+00    2.5                    -7254.5398133877
   327 OT CG       0.12E+00    7.9     0.00004714     -7254.5398134898 -1.70E-03
   328 OT LS       0.12E+00    2.4                    -7254.5414825607
   329 OT CG       0.12E+00    5.5     0.00004674     -7254.5414826462 -1.67E-03
   330 OT LS       0.12E+00    2.5                    -7254.5431266980
   331 OT CG       0.12E+00    5.5     0.00004632     -7254.5431266999 -1.64E-03
   332 OT LS       0.12E+00    2.4                    -7254.5447514613
   333 OT CG       0.12E+00    5.5     0.00004601     -7254.5447515322 -1.62E-03
   334 OT LS       0.12E+00    2.4                    -7254.5463507680
   335 OT CG       0.12E+00    5.5     0.00004567     -7254.5463507741 -1.60E-03
   336 OT LS       0.12E+00    2.4                    -7254.5479248389
   337 OT CG       0.12E+00    5.5     0.00004549     -7254.5479248422 -1.57E-03
   338 OT LS       0.12E+00    2.4                    -7254.5494790038
   339 OT CG       0.12E+00    5.5     0.00004515     -7254.5494790472 -1.55E-03
   340 OT LS       0.12E+00    2.4                    -7254.5510084532
   341 OT CG       0.12E+00    5.5     0.00004473     -7254.5510084539 -1.53E-03
   342 OT LS       0.12E+00    2.4                    -7254.5525195736
   343 OT CG       0.12E+00    5.5     0.00004444     -7254.5525196568 -1.51E-03
   344 OT LS       0.12E+00    2.4                    -7254.5539999506
   345 OT CG       0.12E+00    5.5     0.00004405     -7254.5540000506 -1.48E-03
   346 OT LS       0.12E+00    2.4                    -7254.5554597450
   347 OT CG       0.12E+00    5.5     0.00004365     -7254.5554597571 -1.46E-03
   348 OT LS       0.12E+00    2.4                    -7254.5569047351
   349 OT CG       0.12E+00    5.5     0.00004326     -7254.5569048485 -1.45E-03
   350 OT LS       0.12E+00    2.4                    -7254.5583266369
   351 OT CG       0.12E+00    5.5     0.00004298     -7254.5583266422 -1.42E-03
   352 OT LS       0.12E+00    2.4                    -7254.5597186063
   353 OT CG       0.12E+00    5.6     0.00004258     -7254.5597187224 -1.39E-03
   354 OT LS       0.12E+00    2.4                    -7254.5610919923
   355 OT CG       0.12E+00    5.5     0.00004213     -7254.5610920261 -1.37E-03
   356 OT LS       0.12E+00    2.4                    -7254.5624260434
   357 OT CG       0.12E+00    5.5     0.00004180     -7254.5624261149 -1.33E-03
   358 OT LS       0.12E+00    2.4                    -7254.5637318889
   359 OT CG       0.12E+00    5.5     0.00004141     -7254.5637319322 -1.31E-03
   360 OT LS       0.12E+00    2.4                    -7254.5650122286
   361 OT CG       0.12E+00    5.6     0.00004098     -7254.5650122309 -1.28E-03
   362 OT LS       0.12E+00    2.4                    -7254.5662749963
   363 OT CG       0.12E+00    5.5     0.00004061     -7254.5662750576 -1.26E-03
   364 OT LS       0.12E+00    2.4                    -7254.5675129623
   365 OT CG       0.12E+00    5.5     0.00004024     -7254.5675129633 -1.24E-03
   366 OT LS       0.12E+00    2.4                    -7254.5687360570
   367 OT CG       0.12E+00    5.5     0.00003989     -7254.5687360991 -1.22E-03
   368 OT LS       0.12E+00    2.5                    -7254.5699335197
   369 OT CG       0.12E+00    5.5     0.00003951     -7254.5699335402 -1.20E-03
   370 OT LS       0.12E+00    2.4                    -7254.5711082810
   371 OT CG       0.12E+00    5.5     0.00003912     -7254.5711082810 -1.17E-03
   372 OT LS       0.12E+00    2.4                    -7254.5722556141
   373 OT CG       0.12E+00    5.5     0.00003868     -7254.5722556264 -1.15E-03
   374 OT LS       0.12E+00    2.4                    -7254.5733788744
   375 OT CG       0.12E+00    5.6     0.00003835     -7254.5733788750 -1.12E-03
   376 OT LS       0.12E+00    2.4                    -7254.5744804415
   377 OT CG       0.12E+00    5.5     0.00003795     -7254.5744804494 -1.10E-03
   378 OT LS       0.12E+00    2.4                    -7254.5755660503
   379 OT CG       0.12E+00    5.5     0.00003765     -7254.5755661006 -1.09E-03
   380 OT LS       0.12E+00    2.4                    -7254.5766280683
   381 OT CG       0.12E+00    5.5     0.00003734     -7254.5766281075 -1.06E-03
   382 OT LS       0.12E+00    2.4                    -7254.5776749403
   383 OT CG       0.12E+00    5.5     0.00003696     -7254.5776749443 -1.05E-03
   384 OT LS       0.12E+00    2.4                    -7254.5787020110
   385 OT CG       0.12E+00    5.5     0.00003657     -7254.5787020128 -1.03E-03
   386 OT LS       0.12E+00    2.4                    -7254.5797122869
   387 OT CG       0.12E+00    5.5     0.00003621     -7254.5797123117 -1.01E-03
   388 OT LS       0.12E+00    2.4                    -7254.5806972688
   389 OT CG       0.12E+00    5.5     0.00003586     -7254.5806972999 -9.85E-04
   390 OT LS       0.12E+00    2.4                    -7254.5816683085
   391 OT CG       0.12E+00    5.6     0.00003552     -7254.5816683295 -9.71E-04
   392 OT LS       0.12E+00    2.4                    -7254.5826164632
   393 OT CG       0.12E+00    5.5     0.00003526     -7254.5826164822 -9.48E-04
   394 OT LS       0.12E+00    2.4                    -7254.5835521948
   395 OT CG       0.12E+00    5.5     0.00003489     -7254.5835521971 -9.36E-04
   396 OT LS       0.12E+00    2.4                    -7254.5844689764
   397 OT CG       0.12E+00    5.5     0.00003469     -7254.5844689766 -9.17E-04
   398 OT LS       0.12E+00    2.4                    -7254.5853760359
   399 OT CG       0.12E+00    5.5     0.00003439     -7254.5853760360 -9.07E-04
   400 OT LS       0.12E+00    2.4                    -7254.5862659118
   401 OT CG       0.12E+00    5.5     0.00003415     -7254.5862659133 -8.90E-04
   402 OT LS       0.12E+00    2.4                    -7254.5871463082
   403 OT CG       0.12E+00    5.5     0.00003382     -7254.5871463189 -8.80E-04
   404 OT LS       0.12E+00    2.4                    -7254.5880099885
   405 OT CG       0.12E+00    5.5     0.00003360     -7254.5880099885 -8.64E-04
   406 OT LS       0.12E+00    2.5                    -7254.5888592064
   407 OT CG       0.12E+00    5.5     0.00003323     -7254.5888592213 -8.49E-04
   408 OT LS       0.12E+00    2.4                    -7254.5896904689
   409 OT CG       0.12E+00    5.5     0.00003297     -7254.5896904703 -8.31E-04
   410 OT LS       0.12E+00    2.4                    -7254.5905076918
   411 OT CG       0.12E+00    5.5     0.00003265     -7254.5905076928 -8.17E-04
   412 OT LS       0.12E+00    2.4                    -7254.5913121602
   413 OT CG       0.12E+00    5.5     0.00003247     -7254.5913121685 -8.04E-04
   414 OT LS       0.12E+00    2.4                    -7254.5921068506
   415 OT CG       0.12E+00    5.5     0.00003221     -7254.5921068521 -7.95E-04
   416 OT LS       0.12E+00    2.4                    -7254.5928904132
   417 OT CG       0.12E+00    5.5     0.00003202     -7254.5928904178 -7.84E-04
   418 OT LS       0.12E+00    2.4                    -7254.5936617226
   419 OT CG       0.12E+00    5.5     0.00003172     -7254.5936617337 -7.71E-04
   420 OT LS       0.12E+00    2.4                    -7254.5944204888
   421 OT CG       0.12E+00    5.5     0.00003147     -7254.5944204919 -7.59E-04
   422 OT LS       0.12E+00    2.4                    -7254.5951634308
   423 OT CG       0.12E+00    5.5     0.00003112     -7254.5951634522 -7.43E-04
   424 OT LS       0.12E+00    2.4                    -7254.5958914280
   425 OT CG       0.12E+00    5.5     0.00003087     -7254.5958914326 -7.28E-04
   426 OT LS       0.12E+00    2.4                    -7254.5966035852
   427 OT CG       0.12E+00    5.5     0.00003058     -7254.5966036122 -7.12E-04
   428 OT LS       0.12E+00    2.4                    -7254.5973051881
   429 OT CG       0.12E+00    5.5     0.00003033     -7254.5973051976 -7.02E-04
   430 OT LS       0.12E+00    2.4                    -7254.5979957838
   431 OT CG       0.12E+00    5.5     0.00003006     -7254.5979957842 -6.91E-04
   432 OT LS       0.12E+00    2.4                    -7254.5986772956
   433 OT CG       0.12E+00    5.5     0.00002980     -7254.5986773144 -6.82E-04
   434 OT LS       0.12E+00    2.4                    -7254.5993470858
   435 OT CG       0.12E+00    5.5     0.00002954     -7254.5993470857 -6.70E-04
   436 OT LS       0.12E+00    2.5                    -7254.6000057991
   437 OT CG       0.12E+00    5.5     0.00002927     -7254.6000057990 -6.59E-04
   438 OT LS       0.12E+00    2.4                    -7254.6006514950
   439 OT CG       0.12E+00    5.5     0.00002899     -7254.6006514958 -6.46E-04
   440 OT LS       0.12E+00    2.4                    -7254.6012855992
   441 OT CG       0.12E+00    5.5     0.00002872     -7254.6012855998 -6.34E-04
   442 OT LS       0.12E+00    2.4                    -7254.6019062680
   443 OT CG       0.12E+00    5.6     0.00002852     -7254.6019062730 -6.21E-04
   444 OT LS       0.12E+00    2.4                    -7254.6025170042
   445 OT CG       0.12E+00    5.5     0.00002826     -7254.6025170067 -6.11E-04
   446 OT LS       0.12E+00    2.4                    -7254.6031183783
   447 OT CG       0.12E+00    5.5     0.00002808     -7254.6031183841 -6.01E-04
   448 OT LS       0.12E+00    2.4                    -7254.6037098593
   449 OT CG       0.12E+00    5.5     0.00002790     -7254.6037098674 -5.91E-04
   450 OT LS       0.12E+00    2.4                    -7254.6042947798
   451 OT CG       0.12E+00    5.6     0.00002769     -7254.6042947809 -5.85E-04
   452 OT LS       0.12E+00    2.4                    -7254.6048730597
   453 OT CG       0.12E+00    5.5     0.00002745     -7254.6048730658 -5.78E-04
   454 OT LS       0.12E+00    2.4                    -7254.6054432437
   455 OT CG       0.12E+00    5.5     0.00002727     -7254.6054432522 -5.70E-04
   456 OT LS       0.12E+00    2.4                    -7254.6060057129
   457 OT CG       0.12E+00    5.5     0.00002705     -7254.6060057129 -5.62E-04
   458 OT LS       0.12E+00    2.4                    -7254.6065607612
   459 OT CG       0.12E+00    5.5     0.00002687     -7254.6065607634 -5.55E-04
   460 OT LS       0.12E+00    2.4                    -7254.6071075602
   461 OT CG       0.12E+00    5.5     0.00002671     -7254.6071075614 -5.47E-04
   462 OT LS       0.12E+00    2.4                    -7254.6076471914
   463 OT CG       0.12E+00    5.5     0.00002657     -7254.6076471918 -5.40E-04
   464 OT LS       0.12E+00    2.4                    -7254.6081797086
   465 OT CG       0.12E+00    5.5     0.00002642     -7254.6081797133 -5.33E-04
   466 OT LS       0.12E+00    2.4                    -7254.6087058609
   467 OT CG       0.12E+00    5.5     0.00002627     -7254.6087058612 -5.26E-04
   468 OT LS       0.12E+00    2.4                    -7254.6092252613
   469 OT CG       0.12E+00    5.5     0.00002612     -7254.6092252628 -5.19E-04
   470 OT LS       0.12E+00    2.4                    -7254.6097389919
   471 OT CG       0.12E+00    5.5     0.00002596     -7254.6097389924 -5.14E-04
   472 OT LS       0.12E+00    2.4                    -7254.6102464969
   473 OT CG       0.12E+00    5.5     0.00002580     -7254.6102464969 -5.08E-04
   474 OT LS       0.12E+00    2.5                    -7254.6107502955
   475 OT CG       0.12E+00    5.5     0.00002564     -7254.6107503081 -5.04E-04
   476 OT LS       0.12E+00    2.4                    -7254.6112467042
   477 OT CG       0.12E+00    5.6     0.00002547     -7254.6112467071 -4.96E-04
   478 OT LS       0.12E+00    2.4                    -7254.6117381075
   479 OT CG       0.12E+00    5.5     0.00002530     -7254.6117381144 -4.91E-04
   480 OT LS       0.12E+00    2.4                    -7254.6122229216
   481 OT CG       0.12E+00    5.6     0.00002517     -7254.6122229219 -4.85E-04
   482 OT LS       0.12E+00    2.4                    -7254.6127014800
   483 OT CG       0.12E+00    5.5     0.00002507     -7254.6127014835 -4.79E-04
   484 OT LS       0.12E+00    2.4                    -7254.6131738453
   485 OT CG       0.12E+00    5.5     0.00002495     -7254.6131738565 -4.72E-04
   486 OT LS       0.12E+00    2.4                    -7254.6136417840
   487 OT CG       0.12E+00    5.5     0.00002481     -7254.6136417840 -4.68E-04
   488 OT LS       0.12E+00    2.4                    -7254.6141035570
   489 OT CG       0.12E+00    5.5     0.00002467     -7254.6141035588 -4.62E-04
   490 OT LS       0.12E+00    2.4                    -7254.6145593533
   491 OT CG       0.12E+00    5.5     0.00002448     -7254.6145593549 -4.56E-04
   492 OT LS       0.12E+00    2.4                    -7254.6150112699
   493 OT CG       0.12E+00    5.5     0.00002431     -7254.6150112920 -4.52E-04
   494 OT LS       0.12E+00    2.4                    -7254.6154578842
   495 OT CG       0.12E+00    5.5     0.00002415     -7254.6154578862 -4.47E-04
   496 OT LS       0.12E+00    2.4                    -7254.6159000210
   497 OT CG       0.12E+00    5.5     0.00002403     -7254.6159000246 -4.42E-04
   498 OT LS       0.12E+00    2.4                    -7254.6163390925
   499 OT CG       0.12E+00    5.5     0.00002388     -7254.6163390973 -4.39E-04
   500 OT LS       0.12E+00    2.4                    -7254.6167731450

  Leaving inner SCF loop after reaching   500 steps.


  Electronic density on regular grids:      -3227.9999971169        0.0000028831
  Core density on regular grids:             3227.9999997999       -0.0000002001
  Total charge density on r-space grids:        0.0000026830
  Total charge density g-space grids:           0.0000026830

  Overlap energy of the core charge distribution:               0.00002133468440
  Self energy of the core charge distribution:             -18657.00131791499007
  Core Hamiltonian energy:                                   5293.36517563828420
  Hartree energy:                                            7805.64156668031865
  Exchange-correlation energy:                              -1694.51855198134513
  Dispersion energy:                                           -2.10366690190956

  Total energy:                                             -7254.61677314495864

  outer SCF iter =    1 RMS gradient =   0.24E-04 energy =      -7254.6167731450

  ----------------------------------- OT ---------------------------------------
  Minimizer      : CG                  : conjugate gradient
  Preconditioner : FULL_ALL            : diagonalization, state selective
  Precond_solver : DEFAULT
  Line search    : 2PNT                : 2 energies, one gradient
  stepsize       :    0.15000000                  energy_gap     :    0.00100000
  eps_taylor     :   0.10000E-15                  max_taylor     :             4
  ----------------------------------- OT ---------------------------------------

  Step     Update method      Time    Convergence         Total energy    Change
  ------------------------------------------------------------------------------
     1 OT CG       0.15E+00   25.3     0.00018700     -7254.6167731455 -4.34E-04
     2 OT LS       0.25E+00    2.2                    -7254.6640791979
     3 OT CG       0.25E+00    5.2     0.00000971     -7254.6730002260 -5.62E-02
     4 OT LS       0.84E-01    2.2                    -7254.6728551610
     5 OT CG       0.84E-01    5.1     0.00000154     -7254.6730515111 -5.13E-05
     6 OT LS       0.11E+00    2.1                    -7254.6730530922
     7 OT CG       0.11E+00    5.2     0.00000071     -7254.6730531773 -1.67E-06

  *** SCF run converged in     7 steps ***


  Electronic density on regular grids:      -3227.9999971175        0.0000028825
  Core density on regular grids:             3227.9999997999       -0.0000002001
  Total charge density on r-space grids:        0.0000026824
  Total charge density g-space grids:           0.0000026824

  Overlap energy of the core charge distribution:               0.00002133468440
  Self energy of the core charge distribution:             -18657.00131791499007
  Core Hamiltonian energy:                                   5293.31210306955836
  Hartree energy:                                            7805.65007522719952
  Exchange-correlation energy:                              -1694.53026799182589
  Dispersion energy:                                           -2.10366690190956

  Total energy:                                             -7254.67305317728460

  outer SCF iter =    2 RMS gradient =   0.71E-06 energy =      -7254.6730531773
  outer SCF loop converged in   2 iterations or  507 steps


 ENERGY| Total FORCE_EVAL ( QS ) energy [a.u.]:            -7254.673053469052320

 ATOMIC FORCES in [a.u.]

 # Atom   Kind   Element          X              Y              Z
      1      1      Ti          0.00000000     0.00000000     0.00000000
      2      2      Si          0.00000000     0.00000000     0.00000000
      3      2      Si          0.00000000     0.00000000     0.00000000
      4      2      Si          0.00000000     0.00000000     0.00000000
      5      2      Si          0.00000000     0.00000000     0.00000000
      6      2      Si          0.00000000     0.00000000     0.00000000
      7      2      Si          0.00000000     0.00000000     0.00000000
      8      2      Si          0.00000000     0.00000000     0.00000000
      9      2      Si          0.00000000     0.00000000     0.00000000
     10      2      Si          0.00000000     0.00000000     0.00000000
     11      2      Si          0.00000000     0.00000000     0.00000000
     12      2      Si          0.00000000     0.00000000     0.00000000
     13      2      Si          0.00000000     0.00000000     0.00000000
     14      2      Si          0.00000000     0.00000000     0.00000000
     15      2      Si          0.00000000     0.00000000     0.00000000
     16      2      Si          0.00000000     0.00000000     0.00000000
     17      2      Si          0.00000000     0.00000000     0.00000000
     18      2      Si          0.00000000     0.00000000     0.00000000
     19      2      Si          0.00000000     0.00000000     0.00000000
     20      2      Si          0.00000000     0.00000000     0.00000000
     21      2      Si          0.00000000     0.00000000     0.00000000
     22      2      Si          0.00000000     0.00000000     0.00000000
     23      2      Si          0.00000000     0.00000000     0.00000000
     24      2      Si          0.00000000     0.00000000     0.00000000
     25      2      Si          0.00000000     0.00000000     0.00000000
     26      2      Si          0.00000000     0.00000000     0.00000000
     27      2      Si          0.00000000     0.00000000     0.00000000
     28      2      Si          0.00000000     0.00000000     0.00000000
     29      2      Si          0.00000000     0.00000000     0.00000000
     30      2      Si          0.00000000     0.00000000     0.00000000
     31      2      Si          0.00000000     0.00000000     0.00000000
     32      2      Si          0.00000000     0.00000000     0.00000000
     33      2      Si          0.00000000     0.00000000     0.00000000
     34      2      Si          0.00000000     0.00000000     0.00000000
     35      2      Si          0.00000000     0.00000000     0.00000000
     36      2      Si          0.00000000     0.00000000     0.00000000
     37      2      Si          0.00000000     0.00000000     0.00000000
     38      2      Si          0.00000000     0.00000000     0.00000000
     39      2      Si          0.00000000     0.00000000     0.00000000
     40      2      Si          0.00000000     0.00000000     0.00000000
     41      2      Si          0.00000000     0.00000000     0.00000000
     42      2      Si          0.00000000     0.00000000     0.00000000
     43      2      Si          0.00000000     0.00000000     0.00000000
     44      2      Si          0.00000000     0.00000000     0.00000000
     45      2      Si          0.00000000     0.00000000     0.00000000
     46      2      Si          0.00000000     0.00000000     0.00000000
     47      2      Si          0.00000000     0.00000000     0.00000000
     48      2      Si          0.00000000     0.00000000     0.00000000
     49      2      Si          0.00000000     0.00000000     0.00000000
     50      2      Si          0.00000000     0.00000000     0.00000000
     51      2      Si          0.00000000     0.00000000     0.00000000
     52      2      Si          0.00000000     0.00000000     0.00000000
     53      2      Si          0.00000000     0.00000000     0.00000000
     54      2      Si          0.00000000     0.00000000     0.00000000
     55      2      Si          0.00000000     0.00000000     0.00000000
     56      2      Si          0.00000000     0.00000000     0.00000000
     57      2      Si          0.00000000     0.00000000     0.00000000
     58      2      Si          0.00000000     0.00000000     0.00000000
     59      2      Si          0.00000000     0.00000000     0.00000000
     60      2      Si          0.00000000     0.00000000     0.00000000
     61      2      Si          0.00000000     0.00000000     0.00000000
     62      2      Si          0.00000000     0.00000000     0.00000000
     63      2      Si          0.00000000     0.00000000     0.00000000
     64      2      Si          0.00000000     0.00000000     0.00000000
     65      2      Si          0.00000000     0.00000000     0.00000000
     66      2      Si          0.00000000     0.00000000     0.00000000
     67      2      Si          0.00000000     0.00000000     0.00000000
     68      2      Si          0.00000000     0.00000000     0.00000000
     69      2      Si          0.00000000     0.00000000     0.00000000
     70      2      Si          0.00000000     0.00000000     0.00000000
     71      2      Si          0.00000000     0.00000000     0.00000000
     72      2      Si          0.00000000     0.00000000     0.00000000
     73      2      Si          0.00000000     0.00000000     0.00000000
     74      2      Si          0.00000000     0.00000000     0.00000000
     75      2      Si          0.00000000     0.00000000     0.00000000
     76      2      Si          0.00000000     0.00000000     0.00000000
     77      2      Si          0.00000000     0.00000000     0.00000000
     78      2      Si          0.00000000     0.00000000     0.00000000
     79      2      Si          0.00000000     0.00000000     0.00000000
     80      2      Si          0.00000000     0.00000000     0.00000000
     81      2      Si          0.00000000     0.00000000     0.00000000
     82      2      Si          0.00000000     0.00000000     0.00000000
     83      2      Si          0.00000000     0.00000000     0.00000000
     84      2      Si          0.00000000     0.00000000     0.00000000
     85      2      Si          0.00000000     0.00000000     0.00000000
     86      2      Si          0.00000000     0.00000000     0.00000000
     87      2      Si          0.00000000     0.00000000     0.00000000
     88      2      Si          0.00000000     0.00000000     0.00000000
     89      2      Si          0.00000000     0.00000000     0.00000000
     90      2      Si          0.00000000     0.00000000     0.00000000
     91      2      Si          0.00000000     0.00000000     0.00000000
     92      2      Si          0.00000000     0.00000000     0.00000000
     93      2      Si          0.00000000     0.00000000     0.00000000
     94      2      Si          0.00000000     0.00000000     0.00000000
     95      2      Si          0.00000000     0.00000000     0.00000000
     96      2      Si          0.00000000     0.00000000     0.00000000
     97      2      Si          0.00000000     0.00000000     0.00000000
     98      2      Si          0.00000000     0.00000000     0.00000000
     99      2      Si          0.00000000     0.00000000     0.00000000
    100      2      Si          0.00000000     0.00000000     0.00000000
    101      2      Si          0.00000000     0.00000000     0.00000000
    102      2      Si          0.00000000     0.00000000     0.00000000
    103      2      Si          0.00000000     0.00000000     0.00000000
    104      2      Si          0.00000000     0.00000000     0.00000000
    105      2      Si          0.00000000     0.00000000     0.00000000
    106      2      Si          0.00000000     0.00000000     0.00000000
    107      2      Si          0.00000000     0.00000000     0.00000000
    108      2      Si          0.00000000     0.00000000     0.00000000
    109      2      Si          0.00000000     0.00000000     0.00000000
    110      2      Si          0.00000000     0.00000000     0.00000000
    111      2      Si          0.00000000     0.00000000     0.00000000
    112      2      Si          0.00000000     0.00000000     0.00000000
    113      2      Si          0.00000000     0.00000000     0.00000000
    114      2      Si          0.00000000     0.00000000     0.00000000
    115      2      Si          0.00000000     0.00000000     0.00000000
    116      2      Si          0.00000000     0.00000000     0.00000000
    117      2      Si          0.00000000     0.00000000     0.00000000
    118      2      Si          0.00000000     0.00000000     0.00000000
    119      2      Si          0.00000000     0.00000000     0.00000000
    120      2      Si          0.00000000     0.00000000     0.00000000
    121      2      Si          0.00000000     0.00000000     0.00000000
    122      2      Si          0.00000000     0.00000000     0.00000000
    123      2      Si          0.00000000     0.00000000     0.00000000
    124      2      Si          0.00000000     0.00000000     0.00000000
    125      2      Si          0.00000000     0.00000000     0.00000000
    126      2      Si          0.00000000     0.00000000     0.00000000
    127      2      Si          0.00000000     0.00000000     0.00000000
    128      2      Si          0.00000000     0.00000000     0.00000000
    129      2      Si          0.00000000     0.00000000     0.00000000
    130      2      Si          0.00000000     0.00000000     0.00000000
    131      2      Si          0.00000000     0.00000000     0.00000000
    132      2      Si          0.00000000     0.00000000     0.00000000
    133      2      Si          0.00000000     0.00000000     0.00000000
    134      2      Si          0.00000000     0.00000000     0.00000000
    135      2      Si          0.00000000     0.00000000     0.00000000
    136      2      Si          0.00000000     0.00000000     0.00000000
    137      2      Si          0.00000000     0.00000000     0.00000000
    138      2      Si          0.00000000     0.00000000     0.00000000
    139      2      Si          0.00000000     0.00000000     0.00000000
    140      2      Si          0.00000000     0.00000000     0.00000000
    141      2      Si          0.00000000     0.00000000     0.00000000
    142      2      Si          0.00000000     0.00000000     0.00000000
    143      2      Si          0.00000000     0.00000000     0.00000000
    144      2      Si          0.00000000     0.00000000     0.00000000
    145      2      Si          0.00000000     0.00000000     0.00000000
    146      2      Si          0.00000000     0.00000000     0.00000000
    147      2      Si          0.00000000     0.00000000     0.00000000
    148      2      Si          0.00000000     0.00000000     0.00000000
    149      2      Si          0.00000000     0.00000000     0.00000000
    150      2      Si          0.00000000     0.00000000     0.00000000
    151      2      Si          0.00000000     0.00000000     0.00000000
    152      2      Si          0.00000000     0.00000000     0.00000000
    153      2      Si          0.00000000     0.00000000     0.00000000
    154      2      Si          0.00000000     0.00000000     0.00000000
    155      2      Si          0.00000000     0.00000000     0.00000000
    156      2      Si          0.00000000     0.00000000     0.00000000
    157      2      Si          0.00000000     0.00000000     0.00000000
    158      2      Si          0.00000000     0.00000000     0.00000000
    159      2      Si          0.00000000     0.00000000     0.00000000
    160      2      Si          0.00000000     0.00000000     0.00000000
    161      2      Si          0.00000000     0.00000000     0.00000000
    162      2      Si          0.00000000     0.00000000     0.00000000
    163      2      Si          0.00000000     0.00000000     0.00000000
    164      2      Si          0.00000000     0.00000000     0.00000000
    165      2      Si          0.00000000     0.00000000     0.00000000
    166      2      Si          0.00000000     0.00000000     0.00000000
    167      2      Si          0.00000000     0.00000000     0.00000000
    168      2      Si          0.00000000     0.00000000     0.00000000
    169      2      Si          0.00000000     0.00000000     0.00000000
    170      2      Si          0.00000000     0.00000000     0.00000000
    171      2      Si          0.00000000     0.00000000     0.00000000
    172      2      Si          0.00000000     0.00000000     0.00000000
    173      2      Si          0.00000000     0.00000000     0.00000000
    174      2      Si          0.00000000     0.00000000     0.00000000
    175      2      Si          0.00000000     0.00000000     0.00000000
    176      2      Si          0.00000000     0.00000000     0.00000000
    177      2      Si          0.00000000     0.00000000     0.00000000
    178      2      Si          0.00000000     0.00000000     0.00000000
    179      2      Si          0.00000000     0.00000000     0.00000000
    180      2      Si          0.00000000     0.00000000     0.00000000
    181      2      Si          0.00000000     0.00000000     0.00000000
    182      2      Si          0.00000000     0.00000000     0.00000000
    183      2      Si          0.00000000     0.00000000     0.00000000
    184      2      Si          0.00000000     0.00000000     0.00000000
    185      2      Si          0.00000000     0.00000000     0.00000000
    186      2      Si          0.00000000     0.00000000     0.00000000
    187      2      Si          0.00000000     0.00000000     0.00000000
    188      2      Si          0.00000000     0.00000000     0.00000000
    189      2      Si          0.00000000     0.00000000     0.00000000
    190      2      Si          0.00000000     0.00000000     0.00000000
    191      2      Si          0.00000000     0.00000000     0.00000000
    192      3      O           0.00000000     0.00000000     0.00000000
    193      3      O           0.00000000     0.00000000     0.00000000
    194      3      O           0.00000000     0.00000000     0.00000000
    195      3      O           0.00000000     0.00000000     0.00000000
    196      3      O           0.00000000     0.00000000     0.00000000
    197      3      O           0.00000000     0.00000000     0.00000000
    198      3      O           0.00000000     0.00000000     0.00000000
    199      3      O           0.00000000     0.00000000     0.00000000
    200      3      O           0.00000000     0.00000000     0.00000000
    201      3      O           0.00000000     0.00000000     0.00000000
    202      3      O           0.00000000     0.00000000     0.00000000
    203      3      O           0.00000000     0.00000000     0.00000000
    204      3      O           0.00000000     0.00000000     0.00000000
    205      3      O           0.00000000     0.00000000     0.00000000
    206      3      O           0.00000000     0.00000000     0.00000000
    207      3      O           0.00000000     0.00000000     0.00000000
    208      3      O           0.00000000     0.00000000     0.00000000
    209      3      O           0.00000000     0.00000000     0.00000000
    210      3      O           0.00000000     0.00000000     0.00000000
    211      3      O           0.00000000     0.00000000     0.00000000
    212      3      O           0.00000000     0.00000000     0.00000000
    213      3      O           0.00000000     0.00000000     0.00000000
    214      3      O           0.00000000     0.00000000     0.00000000
    215      3      O           0.00000000     0.00000000     0.00000000
    216      3      O           0.00000000     0.00000000     0.00000000
    217      3      O           0.00000000     0.00000000     0.00000000
    218      3      O           0.00000000     0.00000000     0.00000000
    219      3      O           0.00000000     0.00000000     0.00000000
    220      3      O           0.00000000     0.00000000     0.00000000
    221      3      O           0.00000000     0.00000000     0.00000000
    222      3      O           0.00000000     0.00000000     0.00000000
    223      3      O           0.00000000     0.00000000     0.00000000
    224      3      O           0.00000000     0.00000000     0.00000000
    225      3      O           0.00000000     0.00000000     0.00000000
    226      3      O           0.00000000     0.00000000     0.00000000
    227      3      O           0.00000000     0.00000000     0.00000000
    228      3      O           0.00000000     0.00000000     0.00000000
    229      3      O           0.00000000     0.00000000     0.00000000
    230      3      O           0.00000000     0.00000000     0.00000000
    231      3      O           0.00000000     0.00000000     0.00000000
    232      3      O           0.00000000     0.00000000     0.00000000
    233      3      O           0.00000000     0.00000000     0.00000000
    234      3      O           0.00000000     0.00000000     0.00000000
    235      3      O           0.00000000     0.00000000     0.00000000
    236      3      O           0.00000000     0.00000000     0.00000000
    237      3      O           0.00000000     0.00000000     0.00000000
    238      3      O           0.00000000     0.00000000     0.00000000
    239      3      O           0.00000000     0.00000000     0.00000000
    240      3      O           0.00000000     0.00000000     0.00000000
    241      3      O           0.00000000     0.00000000     0.00000000
    242      3      O           0.00000000     0.00000000     0.00000000
    243      3      O           0.00000000     0.00000000     0.00000000
    244      3      O           0.00000000     0.00000000     0.00000000
    245      3      O           0.00000000     0.00000000     0.00000000
    246      3      O           0.00000000     0.00000000     0.00000000
    247      3      O           0.00000000     0.00000000     0.00000000
    248      3      O           0.00000000     0.00000000     0.00000000
    249      3      O           0.00000000     0.00000000     0.00000000
    250      3      O           0.00000000     0.00000000     0.00000000
    251      3      O           0.00000000     0.00000000     0.00000000
    252      3      O           0.00000000     0.00000000     0.00000000
    253      3      O           0.00000000     0.00000000     0.00000000
    254      3      O           0.00000000     0.00000000     0.00000000
    255      3      O           0.00000000     0.00000000     0.00000000
    256      3      O           0.00000000     0.00000000     0.00000000
    257      3      O           0.00000000     0.00000000     0.00000000
    258      3      O           0.00000000     0.00000000     0.00000000
    259      3      O           0.00000000     0.00000000     0.00000000
    260      3      O           0.00000000     0.00000000     0.00000000
    261      3      O           0.00000000     0.00000000     0.00000000
    262      3      O           0.00000000     0.00000000     0.00000000
    263      3      O           0.00000000     0.00000000     0.00000000
    264      3      O           0.00000000     0.00000000     0.00000000
    265      3      O           0.00000000     0.00000000     0.00000000
    266      3      O           0.00000000     0.00000000     0.00000000
    267      3      O           0.00000000     0.00000000     0.00000000
    268      3      O           0.00000000     0.00000000     0.00000000
    269      3      O           0.00000000     0.00000000     0.00000000
    270      3      O           0.00000000     0.00000000     0.00000000
    271      3      O           0.00000000     0.00000000     0.00000000
    272      3      O           0.00000000     0.00000000     0.00000000
    273      3      O           0.00000000     0.00000000     0.00000000
    274      3      O           0.00000000     0.00000000     0.00000000
    275      3      O           0.00000000     0.00000000     0.00000000
    276      3      O           0.00000000     0.00000000     0.00000000
    277      3      O           0.00000000     0.00000000     0.00000000
    278      3      O           0.00000000     0.00000000     0.00000000
    279      3      O           0.00000000     0.00000000     0.00000000
    280      3      O           0.00000000     0.00000000     0.00000000
    281      3      O           0.00000000     0.00000000     0.00000000
    282      3      O           0.00000000     0.00000000     0.00000000
    283      3      O           0.00000000     0.00000000     0.00000000
    284      3      O           0.00000000     0.00000000     0.00000000
    285      3      O           0.00000000     0.00000000     0.00000000
    286      3      O           0.00000000     0.00000000     0.00000000
    287      3      O           0.00000000     0.00000000     0.00000000
    288      3      O           0.00000000     0.00000000     0.00000000
    289      3      O           0.00000000     0.00000000     0.00000000
    290      3      O           0.00000000     0.00000000     0.00000000
    291      3      O           0.00000000     0.00000000     0.00000000
    292      3      O           0.00000000     0.00000000     0.00000000
    293      3      O           0.00000000     0.00000000     0.00000000
    294      3      O           0.00000000     0.00000000     0.00000000
    295      3      O           0.00000000     0.00000000     0.00000000
    296      3      O           0.00000000     0.00000000     0.00000000
    297      3      O           0.00000000     0.00000000     0.00000000
    298      3      O           0.00000000     0.00000000     0.00000000
    299      3      O           0.00000000     0.00000000     0.00000000
    300      3      O           0.00000000     0.00000000     0.00000000
    301      3      O           0.00000000     0.00000000     0.00000000
    302      3      O           0.00000000     0.00000000     0.00000000
    303      3      O           0.00000000     0.00000000     0.00000000
    304      3      O           0.00000000     0.00000000     0.00000000
    305      3      O           0.00000000     0.00000000     0.00000000
    306      3      O           0.00000000     0.00000000     0.00000000
    307      3      O           0.00000000     0.00000000     0.00000000
    308      3      O           0.00000000     0.00000000     0.00000000
    309      3      O           0.00000000     0.00000000     0.00000000
    310      3      O           0.00000000     0.00000000     0.00000000
    311      3      O           0.00000000     0.00000000     0.00000000
    312      3      O           0.00000000     0.00000000     0.00000000
    313      3      O           0.00000000     0.00000000     0.00000000
    314      3      O           0.00000000     0.00000000     0.00000000
    315      3      O           0.00000000     0.00000000     0.00000000
    316      3      O           0.00000000     0.00000000     0.00000000
    317      3      O           0.00000000     0.00000000     0.00000000
    318      3      O           0.00000000     0.00000000     0.00000000
    319      3      O           0.00000000     0.00000000     0.00000000
    320      3      O           0.00000000     0.00000000     0.00000000
    321      3      O           0.00000000     0.00000000     0.00000000
    322      3      O           0.00000000     0.00000000     0.00000000
    323      3      O           0.00000000     0.00000000     0.00000000
    324      3      O           0.00000000     0.00000000     0.00000000
    325      3      O           0.00000000     0.00000000     0.00000000
    326      3      O           0.00000000     0.00000000     0.00000000
    327      3      O           0.00000000     0.00000000     0.00000000
    328      3      O           0.00000000     0.00000000     0.00000000
    329      3      O           0.00000000     0.00000000     0.00000000
    330      3      O           0.00000000     0.00000000     0.00000000
    331      3      O           0.00000000     0.00000000     0.00000000
    332      3      O           0.00000000     0.00000000     0.00000000
    333      3      O           0.00000000     0.00000000     0.00000000
    334      3      O           0.00000000     0.00000000     0.00000000
    335      3      O           0.00000000     0.00000000     0.00000000
    336      3      O           0.00000000     0.00000000     0.00000000
    337      3      O           0.00000000     0.00000000     0.00000000
    338      3      O           0.00000000     0.00000000     0.00000000
    339      3      O           0.00000000     0.00000000     0.00000000
    340      3      O           0.00000000     0.00000000     0.00000000
    341      3      O           0.00000000     0.00000000     0.00000000
    342      3      O           0.00000000     0.00000000     0.00000000
    343      3      O           0.00000000     0.00000000     0.00000000
    344      3      O           0.00000000     0.00000000     0.00000000
    345      3      O           0.00000000     0.00000000     0.00000000
    346      3      O           0.00000000     0.00000000     0.00000000
    347      3      O           0.00000000     0.00000000     0.00000000
    348      3      O           0.00000000     0.00000000     0.00000000
    349      3      O           0.00000000     0.00000000     0.00000000
    350      3      O           0.00000000     0.00000000     0.00000000
    351      3      O           0.00000000     0.00000000     0.00000000
    352      3      O           0.00000000     0.00000000     0.00000000
    353      3      O           0.00000000     0.00000000     0.00000000
    354      3      O           0.00000000     0.00000000     0.00000000
    355      3      O           0.00000000     0.00000000     0.00000000
    356      3      O           0.00000000     0.00000000     0.00000000
    357      3      O           0.00000000     0.00000000     0.00000000
    358      3      O           0.00000000     0.00000000     0.00000000
    359      3      O           0.00000000     0.00000000     0.00000000
    360      3      O           0.00000000     0.00000000     0.00000000
    361      3      O           0.00000000     0.00000000     0.00000000
    362      3      O           0.00000000     0.00000000     0.00000000
    363      3      O           0.00000000     0.00000000     0.00000000
    364      3      O           0.00000000     0.00000000     0.00000000
    365      3      O           0.00000000     0.00000000     0.00000000
    366      3      O           0.00000000     0.00000000     0.00000000
    367      3      O           0.00000000     0.00000000     0.00000000
    368      3      O           0.00000000     0.00000000     0.00000000
    369      3      O           0.00000000     0.00000000     0.00000000
    370      3      O           0.00000000     0.00000000     0.00000000
    371      3      O           0.00000000     0.00000000     0.00000000
[...]
 flops  1995 x   288 x   128        7577352437760       0.0%    100.0%      0.0%
 flops  1997 x   288 x   128        7584948781056       0.0%    100.0%      0.0%
 flops  1999 x   288 x   128        7592545124352       0.0%    100.0%      0.0%
 flops  2000 x   288 x   128        7596343296000       0.0%    100.0%      0.0%
 flops  1995 x   256 x   128       10103136583680       0.0%    100.0%      0.0%
 flops  1997 x   256 x   128       10113265041408       0.0%    100.0%      0.0%
 flops  1999 x   256 x   128       10123393499136       0.0%    100.0%      0.0%
 flops  2000 x   256 x   128       10128457728000       0.0%    100.0%      0.0%
 flops    13 x    13 x   128       19900203298560       0.0%    100.0%      0.0%
 flops    13 x    32 x    13      109671805859200       0.0%    100.0%      0.0%
 flops inhomo. stacks             170231301946440     100.0%      0.0%      0.0%
 flops total                       587.017102E+12      29.0%     71.0%      0.0%
 flops max/rank                     26.330648E+12      29.1%     70.9%      0.0%
 matmuls inhomo. stacks                    516936     100.0%      0.0%      0.0%
 matmuls total                        13601730480       0.0%    100.0%      0.0%
 number of processed stacks              19133895       2.7%     97.3%      0.0%
 average stack size                                     1.0     730.6       0.0
 marketing flops                   992.018864E+12
 -------------------------------------------------------------------------------
 # multiplications                          12012
 max memory usage/rank               1.196052E+09
 # max total images/rank                        3
 # max 3D layers                                1
 # MPI messages exchanged                 5477472
 MPI messages size (bytes):
  total size                         9.521071E+12
  min size                           0.000000E+00
  max size                          10.896000E+06
  average size                       1.738224E+06
 MPI breakdown and total messages size (bytes):
             size <=      128               34344                        0
       128 < size <=     8192                   0                        0
      8192 < size <=    32768                1458                 47775744
     32768 < size <=   131072                 486                 18833472
    131072 < size <=  4194304             5211744            7079540626760
   4194304 < size <= 16777216              229440            2441856537440
  16777216 < size                               0                        0
 -------------------------------------------------------------------------------

 *** WARNING in dbcsr_mm.F:291 :: Using a non-square number of MPI ranks ***
 *** might lead to poor performance. Used ranks: 24 Suggested: 25 49     ***

 -------------------------------------------------------------------------------
 -                                                                             -
 -                      DBCSR MESSAGE PASSING PERFORMANCE                      -
 -                                                                             -
 -------------------------------------------------------------------------------
 ROUTINE             CALLS      AVE VOLUME [Bytes]
 MP_Bcast              178                     12.
 MP_Allreduce        60680                    114.
 MP_Alltoall         54964                 793255.
 MP_ISend           552996                 791544.
 MP_IRecv           544184                 796470.
 -------------------------------------------------------------------------------

 -------------------------------------------------------------------------------
 -                                                                             -
 -                                DBM STATISTICS                               -
 -                                                                             -
 -------------------------------------------------------------------------------
    M  x    N  x    K                                          COUNT     PERCENT
 -------------------------------------------------------------------------------

 -------------------------------------------------------------------------------
 -                                                                             -
 -                                GRID STATISTICS                              -
 -                                                                             -
 -------------------------------------------------------------------------------
 LP    KERNEL             BACKEND                              COUNT     PERCENT
 4     collocate ortho    CPU                              244610518      52.78%
 4     integrate ortho    CPU                              122305259      26.39%
 3     collocate ortho    CPU                               41073814       8.86%
 3     integrate ortho    CPU                               20536907       4.43%
 7     integrate ortho    CPU                               14999678       3.24%
 2     collocate ortho    CPU                                8626652       1.86%
 2     integrate ortho    CPU                                4313326       0.93%
 6     integrate ortho    CPU                                2533796       0.55%
 5     collocate ortho    CPU                                1465344       0.32%
 5     integrate ortho    CPU                                1261816       0.27%
 0     collocate general  CPU                                 816624       0.18%
 3     integrate general  CPU                                 801216       0.17%
 8     integrate ortho    CPU                                  89856       0.02%
 6     collocate ortho    CPU                                  30528       0.01%
 9     integrate ortho    CPU                                   1872       0.00%
 -------------------------------------------------------------------------------

 MEMORY| Estimated peak process memory [MiB]                                1141

 -------------------------------------------------------------------------------
 -                                                                             -
 -                         MESSAGE PASSING PERFORMANCE                         -
 -                                                                             -
 -------------------------------------------------------------------------------

 ROUTINE             CALLS      AVE VOLUME [Bytes]
 MP_Group                5
 MP_Bcast            35952                 235635.
 MP_Allreduce        97203                   1210.
 MP_Sync               719
 MP_Alltoall         14666               33803541.
 MP_SendRecv         63296                 118683.
 MP_ISendRecv        32844                 127093.
 MP_Wait            122159
 MP_comm_split         714
 MP_ISend            79732                 806158.
 MP_IRecv            79732                 806321.
 -------------------------------------------------------------------------------


 -------------------------------------------------------------------------------
 -                                                                             -
 -                           R E F E R E N C E S                               -
 -                                                                             -
 -------------------------------------------------------------------------------
 
 CP2K version 2023.2, the CP2K developers group (2023).
 CP2K is freely available from https://www.cp2k.org/ .

 Kuehne,Thomas D.; Iannuzzi,Marcella; Del Ben,Mauro;
 Rybkin,Vladimir V.; Seewald,Patrick; Stein,Frederick; Laino,Teodoro;
 Khaliullin,Rustam Z.; Schuett,Ole; Schiffmann,Florian; Golze,Dorothea;
 Wilhelm,Jan; Chulkov,Sergey; Bani-Hashemian,Mohammad Hossein;
 Weber,Valery; Borstnik,Urban; Taillefumier,Mathieu;
 Jakobovits,Alice Shoshana; Lazzaro,Alfio; Pabst,Hans; Mueller,Tiziano;
 Schade,Robert; Guidon,Manuel; Andermatt,Samuel; Holmberg,Nico;
 Schenter,Gregory K.; Hehn,Anna; Bussy,Augustin; Belleflamme,Fabian;
 Tabacchi,Gloria; Gloess,Andreas; Lass,Michael; Bethune,Iain;
 Mundy,Christopher J.; Plessl,Christian; Watkins,Matt;
 VandeVondele,Joost; Krack,Matthias; Hutter,Juerg. 
 The Journal of Chemical Physics, 152 (19), (2020). 
 CP2K: An electronic structure and molecular dynamics software package -
 Quickstep: Efficient and accurate electronic structure calculations.
 https://doi.org/10.1063/5.0007045

 Goerigk, Lars; Hansen, Andreas; Bauer, Christoph; Ehrlich, Stephan;
 Najibi, Asim; Grimme, Stefan. , 19 (48), (2017). 
 A look at the density functional theory zoo with the advanced GMTKN55 database
 for general main group thermochemistry, kinetics and noncovalent interactions.
 https://doi.org/10.1039/C7CP04913G

 Schuett, Ole; Messmer, Peter; Hutter, Juerg; VandeVondele, Joost. 
 Electronic Structure Calculations on Graphics Processing Units, John
 Wiley & Sons, Ltd, 173-190 (2016). 
 GPU-Accelerated Sparse Matrix-Matrix Multiplication for
 Linear Scaling Density Functional Theory.
 https://doi.org/10.1002/9781118670712.ch8

 Heinecke, A; Henry, G; Hutchinson, M; Pabst, H. 
 Proceedings of Intl. Supercomputing Conference, 981-991 (2016). 
 LIBXSMM: Accelerating Small Matrix Multiplications
 by Runtime Code Generation.
 https://doi.org/10.1109/SC.2016.83

 Borstnik, U; VandeVondele, J; Weber, V; Hutter, J. 
 PARALLEL COMPUTING, 40 (5-6), 47-58 (2014). 
 Sparse matrix multiplication: The distributed block-compressed sparse
 row library.
 https://doi.org/10.1016/j.parco.2014.03.012

 Hutter, J; Iannuzzi, M; Schiffmann, F; VandeVondele, J. 
 WIREs Comput Mol Sci., 4 (1), 15-25 (2014). 
 CP2K: atomistic simulations of condensed matter systems.
 https://doi.org/10.1002/wcms.1159

 Grimme, S; Ehrlich, S; Goerigk, L. 
 JOURNAL OF COMPUTATIONAL CHEMISTRY, 32, 1456 (2011). 
 Effect of the damping function in dispersion corrected density functional theory.
 https://doi.org/10.1002/jcc.21759

 Grimme, S; Antony, J; Ehrlich, S; Krieg, H. 
 JOURNAL OF CHEMICAL PHYSICS, 132 (15), 154104 (2010). 
 A consistent and accurate ab initio parametrization of density
 functional dispersion correction (DFT-D) for the 94 elements H-Pu.
 https://doi.org/10.1063/1.3382344

 VandeVondele, J; Hutter, J. 
 JOURNAL OF CHEMICAL PHYSICS, 127 (11), 114105 (2007). 
 Gaussian basis sets for accurate calculations on molecular systems in
 gas and condensed phases.
 https://doi.org/10.1063/1.2770708

 Kuhne, TD; Krack, M; Mohamed, FR; Parrinello, M. 
 PHYSICAL REVIEW LETTERS, 98 (6), 066401 (2007). 
 Efficient and accurate Car-Parrinello-like approach to
 Born-Oppenheimer molecular dynamics.
 https://doi.org/10.1103/PhysRevLett.98.066401

 Krack, M. 
 THEORETICAL CHEMISTRY ACCOUNTS, 114 (1-3), 145-152 (2005). 
 Pseudopotentials for H to Kr optimized for gradient-corrected
 exchange-correlation functionals.
 https://doi.org/10.1007/s00214-005-0655-y

 VandeVondele, J; Krack, M; Mohamed, F; Parrinello, M; Chassaing, T;
 Hutter, J. COMPUTER PHYSICS COMMUNICATIONS, 167 (2), 103-128 (2005). 
 QUICKSTEP: Fast and accurate density functional calculations using a
 mixed Gaussian and plane waves approach.
 https://doi.org/10.1016/j.cpc.2004.12.014

 Frigo, M; Johnson, SG. 
 PROCEEDINGS OF THE IEEE, 93 (2), 216-231 (2005). 
 The design and implementation of FFTW3.
 https://doi.org/10.1109/JPROC.2004.840301

 Kolafa, J. 
 JOURNAL OF COMPUTATIONAL CHEMISTRY, 25 (3), 335-342 (2004). 
 Time-reversible always stable predictor-corrector method for
 molecular dynamics of polarizable molecules.
 https://doi.org/10.1002/jcc.10385

 VandeVondele, J; Hutter, J. 
 JOURNAL OF CHEMICAL PHYSICS, 118 (10), 4365-4369 (2003). 
 An efficient orbital transformation method for electronic structure
 calculations.
 https://doi.org/10.1063/1.1543154

 Hartwigsen, C; Goedecker, S; Hutter, J. 
 PHYSICAL REVIEW B, 58 (7), 3641-3662 (1998). 
 Relativistic separable dual-space Gaussian pseudopotentials from H to Rn.
 https://doi.org/10.1103/PhysRevB.58.3641

 Lippert, G; Hutter, J; Parrinello, M. 
 MOLECULAR PHYSICS, 92 (3), 477-487 (1997). 
 A hybrid Gaussian and plane wave density functional scheme.
 https://doi.org/10.1080/002689797170220

 Perdew, JP; Burke, K; Ernzerhof, M. 
 PHYSICAL REVIEW LETTERS, 77 (18), 3865-3868 (1996). 
 Generalized gradient approximation made simple.
 https://doi.org/10.1103/PhysRevLett.77.3865

 Goedecker, S; Teter, M; Hutter, J. 
 PHYSICAL REVIEW B, 54 (3), 1703-1710 (1996). 
 Separable dual-space Gaussian pseudopotentials.
 https://doi.org/10.1103/PhysRevB.54.1703


 -------------------------------------------------------------------------------
 -                                                                             -
 -                                T I M I N G                                  -
 -                                                                             -
 -------------------------------------------------------------------------------
 SUBROUTINE                       CALLS  ASD         SELF TIME        TOTAL TIME
                                MAXIMUM       AVERAGE  MAXIMUM  AVERAGE  MAXIMUM
 CP2K                                 1  1.0    0.010    0.011 4676.060 4676.071
 cp_geo_opt                           1  2.0    0.000    0.000 4674.854 4674.865
 geoopt_bfgs                          1  3.0    0.122    0.135 4674.854 4674.865
 cp_eval_at                          53  4.0    0.009    0.065 4659.481 4659.532
 qs_forces                           52  5.0    0.019    0.020 4620.235 4620.245
 qs_energies                         53  6.0    0.004    0.005 4400.099 4400.226
 scf_env_do_scf                      53  7.0    0.003    0.005 4213.531 4213.623
 scf_env_do_scf_inner_loop          795  8.0    0.020    0.131 3207.482 3208.434
 rebuild_ks_matrix                  847  9.8    0.004    0.005 1528.846 1530.639
 qs_ks_build_kohn_sham_matrix       847 10.8    0.115    0.123 1528.842 1530.634
 qs_ks_update_qs_env                849  9.0    0.007    0.008 1326.187 1327.732
 dbcsr_multiply_generic           12012 13.7    0.797    0.892 1146.383 1153.611
 qs_scf_new_mos                     795  9.0    0.005    0.007 1087.864 1090.259
 qs_scf_loop_do_ot                  795 10.0    0.005    0.007 1087.859 1090.254
 ot_scf_mini                        795 11.0    0.029    0.035 1009.497 1012.125
 init_scf_loop                       54  8.0    0.002    0.003 1003.924 1003.952
 pw_transfer                      14136 13.7    0.699    0.731  960.970  967.129
 fft_wrap_pw1pw2                  12442 14.8    0.122    0.131  948.925  955.313
 multiply_cannon                  12012 14.7    1.105    1.469  897.106  919.757
 fft_wrap_pw1pw2_180               7146 16.4  154.234  165.035  912.398  918.035
 multiply_cannon_loop             12012 15.7    1.942    2.107  855.973  881.266
 prepare_preconditioner              54  9.0    0.001    0.001  858.292  858.673
 qs_vxc_create                      847 11.8    0.019    0.021  852.052  855.969
 make_preconditioner                 54 10.0    0.001    0.002  825.566  825.764
 make_full_all                       54 11.0    0.123    0.137  794.386  794.404
 qs_rho_update_rho_low              848  9.1    0.004    0.005  786.276  786.791
 calculate_rho_elec                 848 10.1    2.649    2.722  786.271  786.787
 multiply_cannon_multrec         144144 16.7  605.494  661.258  605.660  661.421
 fft3d_ps                         12442 16.8  285.125  302.435  638.233  652.854
 cp_fm_syevd                        714 13.6    0.008    0.010  637.218  637.821
 cp_fm_redistribute_end             714 14.6  319.237  634.750  319.586  634.761
 cp_fm_syevd_base                   714 14.6  313.579  628.591  313.579  628.591
 xc_vxc_pw_create                   476 12.7   14.300   16.825  610.129  614.047
 xc_pw_derive                      3969 14.8    0.075    0.085  580.746  588.605
 ot_mini                            795 12.0    0.007    0.009  563.616  566.314
 xc_rho_set_and_dset_create         847 13.8    7.522    9.190  546.406  550.695
 sum_up_and_integrate               476 11.7    4.594    4.941  481.679  481.886
 integrate_v_rspace                 476 12.7    0.017    0.020  477.084  477.344
 grid_collocate_task_list           848 11.1  428.124  456.960  428.124  456.960
 density_rs2pw                      848 11.1    0.053    0.057  337.487  367.955
 grid_integrate_task_list           476 13.7  332.009  349.299  332.009  349.299
 mp_waitall_1                    715099 17.8  301.284  343.453  301.284  343.453
 apply_preconditioner_dbcsr         478 14.0    0.001    0.002  329.548  330.989
 apply_all                          478 15.0    0.393    0.453  329.546  330.988
 ot_new_cg_direction                424 13.0    0.008    0.009  298.316  298.317
 xc_pw_divergence                   476 13.7    0.030    0.033  278.325  285.271
 multiply_cannon_metrocomm3      144144 16.7    0.535    0.644  239.723  283.281
 qs_ot_get_derivative               424 13.0    0.005    0.008  262.204  264.910
 x_to_yz                           6245 18.5  157.230  162.344  229.499  245.299
 xc_exc_calc                        371 13.0    1.132    1.138  241.904  241.905
 qs_ks_update_qs_env_forces          52  6.0    0.000    0.000  205.264  205.454
 qs_ot_get_p                        849 11.9    0.006    0.008  190.051  195.034
 make_m2s                         24024 14.7    0.679    0.801  188.899  191.744
 write_mo_set_to_restart            795  9.0    7.524  180.238  188.468  189.887
 cp_fm_write_unformatted            129  8.6  173.897  181.197  180.705  189.577
 write_mo_set_low                    78 10.0    0.002    0.032  179.149  188.008
 rs_pw_transfer                    6725 12.9    0.072    0.084  139.639  171.456
 xc_functional_eval                 847 14.8    0.008    0.009  156.020  158.195
 pbe_lda_eval                       847 15.8  156.012  158.188  156.012  158.188
 mp_alltoall_z22v                 12442 18.8  115.262  143.528  115.262  143.528
 make_images                      24024 15.7    2.973    3.090  139.547  141.759
 init_scf_run                        53  7.0    0.001    0.003  137.225  137.252
 scf_env_initial_rho_setup           53  8.0    0.001    0.001  137.224  137.249
 wfi_extrapolate                     53  9.0    0.008    0.009  134.556  134.556
 yz_to_x                           6197 17.1   80.351   82.735  123.344  132.952
 parallel_gemm_fm                   876 10.2    0.003    0.003  131.866  132.340
 parallel_gemm_fm_gemm              876 11.2    0.003    0.003  131.863  132.338
 cp_fm_gemm                         876 12.2  131.860  132.335  131.860  132.335
 qs_ot_get_orbitals                 795 12.0    0.006    0.008  127.205  128.693
 cp_dbcsr_syevd                     608 13.6    0.046    0.064  125.805  126.303
 potential_pw2rs                    476 13.7    0.156    0.224  123.819  124.032
 qs_ot_p2m_diag                     500 13.0    2.247    2.496  121.398  121.921
 qs_ot_get_derivative_diag          249 14.0    0.008    0.011  103.264  105.070
 mp_waitany                       79732 14.9   65.009   99.064   65.009   99.064
 pw_scatter_p                      6245 17.5   79.277   95.102   79.277   95.102
 rs_pw_transfer_RS2PW_180           901 12.9   16.987   18.236   63.419   94.539
 -------------------------------------------------------------------------------

 The number of warnings for this run is : 2
 
 -------------------------------------------------------------------------------
  **** **** ******  **  PROGRAM ENDED AT                 2025-01-28 15:42:29.860
 ***** ** ***  *** **   PROGRAM RAN ON                         c0142.ten.osc.edu
 **    ****   ******    PROGRAM RAN BY                                   xiutinc
 ***** **    ** ** **   PROGRAM PROCESS ID                               1595358
  **** **  *******  **  PROGRAM STOPPED IN /fs/scratch/PAS2536/xiutinc/386247.ad
                                           l02_01_02_propanol
