ITEM: TIMESTEP
2000000
ITEM: NUMBER OF ATOMS
4768
ITEM: BOX BOUNDS xy xz yz pp pp pp
0.0000000000000000e+00 2.4433001000000001e+01 0.0000000000000000e+00
0.0000000000000000e+00 2.4433001000000001e+01 0.0000000000000000e+00
0.0000000000000000e+00 8.7675772958794497e+01 0.0000000000000000e+00
ITEM: ATOMS id mol type q x y z
1 1 1 -0.834 22.8657 11.9612 53.2535
2 1 1 -0.834 11.6762 15.9884 31.805
3 1 1 -0.834 3.51957 23.938 72.7706
4 1 1 -0.834 12.2511 20.8109 59.2371
5 1 1 -0.834 10.071 2.04005 60.3664
6 1 1 -0.834 5.1871 15.9798 42.125
7 1 1 -0.834 13.7106 13.5057 69.8244
8 1 1 -0.834 19.7179 21.122 86.6058
9 1 1 -0.834 7.99374 9.35769 73.4793
10 1 1 -0.834 22.5928 14.1863 47.1516
11 1 1 -0.834 6.11286 7.4371 61.2593
12 1 1 -0.834 1.26318 8.83626 71.8043
13 1 1 -0.834 14.0725 23.0109 19.191
14 1 1 -0.834 18.5726 17.3331 32.2809
15 1 1 -0.834 12.0407 8.87202 63.0116
16 1 1 -0.834 16.6816 18.3712 34.1617
17 1 1 -0.834 1.27294 16.8961 43.7698
18 1 1 -0.834 18.0691 9.40351 79.6005
19 1 1 -0.834 5.45894 5.19988 44.5546
20 1 1 -0.834 6.02736 12.9792 65.9206
21 1 1 -0.834 0.682517 22.6194 43.8229
22 1 1 -0.834 12.3806 0.59666 16.9056
23 1 1 -0.834 2.8806 7.65075 45.5761
24 1 1 -0.834 23.4433 10.2475 65.0585
25 1 1 -0.834 16.8344 6.75025 82.164
26 1 1 -0.834 16.1569 18.1457 51.2784
27 1 1 -0.834 23.6783 19.6494 68.1729
28 1 1 -0.834 0.613008 4.75259 47.9281
29 1 1 -0.834 19.4454 17.4653 79.6755
30 1 1 -0.834 6.01433 12.5148 76.7499
31 1 1 -0.834 9.2616 14.5637 74.475
32 1 1 -0.834 10.8119 23.4419 59.7748
33 1 1 -0.834 9.0179 12.6627 67.4097
34 1 1 -0.834 0.75361 20.219 24.6885
35 1 1 -0.834 24.3247 1.92622 71.435
36 1 1 -0.834 7.90276 19.6889 43.3747
37 1 1 -0.834 0.120081 6.22294 67.7618
38 1 1 -0.834 22.286 18.7129 50.7315
39 1 1 -0.834 6.78417 1.33853 62.9385
40 1 1 -0.834 10.8685 22.7098 12.5491
41 1 1 -0.834 10.8111 23.0335 46.233
42 1 1 -0.834 14.7408 11.1976 76.8442
43 1 1 -0.834 18.4134 14.8198 71.6808
44 1 1 -0.834 16.5614 13.1448 6.18296
45 1 1 -0.834 6.84014 17.561 53.5906
46 1 1 -0.834 3.19368 23.5259 7.56401
47 1 1 -0.834 0.702977 3.87139 30.5602
48 1 1 -0.834 9.05827 6.07136 64.2224
49 1 1 -0.834 8.35933 22.0049 67.2452
50 1 1 -0.834 12.7934 16.642 65.4629
51 1 1 -0.834 17.394 12.6829 76.366
52 1 1 -0.834 4.68576 21.5474 15.2374
53 1 1 -0.834 8.10382 24.2268 60.7387
54 1 1 -0.834 9.77215 12.1556 29.5884
55 1 1 -0.834 16.5078 11.8108 79.0841
56 1 1 -0.834 23.1179 5.00436 34.9841
57 1 1 -0.834 20.4645 16.1432 45.8827
58 1 1 -0.834 15.1431 15.0699 65.1886
59 1 1 -0.834 15.8804 13.0554 56.4265
60 1 1 -0.834 15.1869 23.6575 55.6803
61 1 1 -0.834 22.4404 11.3199 72.3233
62 1 1 -0.834 19.0076 15.5069 34.1801
63 1 1 -0.834 23.5107 6.96355 71.1962
64 1 1 -0.834 8.57909 18.6349 51.6425
65 1 1 -0.834 5.35075 22.2912 58.6477
66 1 1 -0.834 14.8658 5.52916 48.8998
67 1 1 -0.834 15.5419 17.3029 48.859
68 1 1 -0.834 1.82776 16.3655 83.4456
69 1 1 -0.834 21.6414 3.16286 42.7526
70 1 1 -0.834 18.965 1.29741 23.684
71 1 1 -0.834 24.1923 9.58357 61.9643
72 1 1 -0.834 6.92608 1.80065 49.3321
73 1 1 -0.834 23.053 8.02852 53.8772
74 1 1 -0.834 24.391 22.6021 52.3497
75 1 1 -0.834 0.806684 1.09413 80.2532
76 1 1 -0.834 4.43796 7.97561 48.3219
77 1 1 -0.834 11.1282 16.7763 74.4393
78 1 1 -0.834 21.6065 23.0775 57.5168
79 1 1 -0.834 18.1618 9.36202 59.3116
80 1 1 -0.834 20.2275 17.652 43.6273
81 1 1 -0.834 19.4176 5.21012 41.952
82 1 1 -0.834 8.69491 17.6873 69.7109
83 1 1 -0.834 11.7541 3.10719 20.3264
84 1 1 -0.834 4.94586 7.7663 43.735
85 1 1 -0.834 6.8629 2.13282 75.6713
86 1 1 -0.834 1.41867 12.0482 41.8962
87 1 1 -0.834 2.49369 7.71599 9.55745
88 1 1 -0.834 16.673 18.6858 54.6667
89 1 1 -0.834 15.23 2.24724 45.023
90 1 1 -0.834 20.056 4.42041 81.2584
91 1 1 -0.834 21.6322 9.8468 74.5867
92 1 1 -0.834 4.98018 1.68954 56.8924
93 1 1 -0.834 7.5239 0.14094 78.0152
94 1 1 -0.834 11.1011 2.28241 43.5151
95 1 1 -0.834 13.4756 16.9746 37.905
96 1 1 -0.834 1.03889 11.4099 16.8275
97 1 1 -0.834 18.8684 5.34655 60.9451
98 1 1 -0.834 9.02694 4.46798 2.95231
99 1 1 -0.834 15.7708 1.49668 18.6361
100 1 1 -0.834 1.14589 22.8973 55.6574
101 1 1 -0.834 21.5556 21.2967 7.93556
102 1 1 -0.834 21.0793 9.38933 20.2571
103 1 1 -0.834 10.5781 1.25333 69.4814
104 1 1 -0.834 12.306 0.693997 51.6915
105 1 1 -0.834 1.33747 0.149162 75.9226
106 1 1 -0.834 17.4281 0.824906 56.8589
107 1 1 -0.834 24.432 18.0978 73.8833
108 1 1 -0.834 14.8637 1.36876 52.0536
109 1 1 -0.834 10.0889 15.4444 47.555
110 1 1 -0.834 5.88254 1.81384 31.9532
111 1 1 -0.834 20.521 7.71325 55.1393
112 1 1 -0.834 23.6793 7.92 35.9697
113 1 1 -0.834 1.78361 8.99803 68.9167
114 1 1 -0.834 11.9559 23.2798 41.5685
115 1 1 -0.834 14.7318 11.0538 8.87306
116 1 1 -0.834 13.5091 2.55257 63.9996
117 1 1 -0.834 5.91475 16.8239 81.5673
118 1 1 -0.834 7.37584 18.5909 12.7779
119 1 1 -0.834 23.0787 4.52245 69.7402
120 1 1 -0.834 22.256 22.1978 44.0735
121 1 1 -0.834 18.8697 22.0624 48.8961
122 1 1 -0.834 13.2617 4.71111 25.9644
123 1 1 -0.834 5.5597 12.3924 71.2123
124 1 1 -0.834 12.7077 12.9425 9.20126
125 1 1 -0.834 0.652225 10.0102 49.9817
126 1 1 -0.834 14.1446 7.73905 55.1261
127 1 1 -0.834 3.70461 4.70079 56.9158
128 1 1 -0.834 12.9367 22.3504 78.6977
129 1 1 -0.834 5.39617 14.7899 78.9135
130 1 1 -0.834 5.82762 0.51164 8.34495
131 1 1 -0.834 4.28835 21.3423 77.3883
132 1 1 -0.834 19.6422 18.9993 55.365
133 1 1 -0.834 0.735738 10.492 39.8663
134 1 1 -0.834 11.4235 4.13322 82.7806
135 1 1 -0.834 14.3196 2.07516 25.9309
136 1 1 -0.834 24.3358 1.61637 66.2646
137 1 1 -0.834 8.1043 13.6823 79.1717
138 1 1 -0.834 17.4211 15.0539 45.2917
139 1 1 -0.834 6.98865 6.18084 70.4676
140 1 1 -0.834 4.25181 19.6642 80.9783
141 1 1 -0.834 1.52768 2.0335 47.6333
142 1 1 -0.834 19.8114 21.7178 45.1912
143 1 1 -0.834 17.1718 8.5558 64.1115
144 1 1 -0.834 2.35319 1.18105 52.4597
145 1 1 -0.834 9.09062 12.5558 62.0857
146 1 1 -0.834 11.0616 16.8328 59.9485
147 1 1 -0.834 11.4191 11.0897 56.008
148 1 1 -0.834 13.3186 9.38849 79.0551
149 1 1 -0.834 12.4172 18.0397 78.883
150 1 1 -0.834 16.2332 24.066 46.6395
151 1 1 -0.834 24.391 7.48322 65.352
152 1 1 -0.834 10.3479 3.39604 57.0127
153 1 1 -0.834 17.4416 3.76769 73.7921
154 1 1 -0.834 15.8954 22.7504 52.2114
155 1 1 -0.834 11.3313 19.7001 73.7297
156 1 1 -0.834 10.6939 6.41381 86.2787
157 1 1 -0.834 18.748 20.9592 67.7395
158 1 1 -0.834 2.13453 0.576757 11.6542
159 1 1 -0.834 13.1043 10.6005 43.7376
160 1 1 -0.834 14.4944 7.9632 65.2775
161 1 1 -0.834 11.0069 22.6489 62.5836
162 1 1 -0.834 24.1777 1.48147 51.7466
163 1 1 -0.834 15.4104 10.6227 73.9058
164 1 1 -0.834 8.24346 13.7742 28.0074
165 1 1 -0.834 11.3045 11.1976 1.20278
166 1 1 -0.834 3.32524 5.07278 30.0038
167 1 1 -0.834 7.81048 14.0621 43.6938
168 1 1 -0.834 2.26999 11.3989 55.1842
169 1 1 -0.834 16.3143 10.8912 10.9618
170 1 1 -0.834 20.5941 9.15337 14.6574
171 1 1 -0.834 1.12351 22.3013 29.4009
172 1 1 -0.834 20.6967 7.20713 63.7676
173 1 1 -0.834 4.90802 5.68188 35.1909
174 1 1 -0.834 12.0632 15.6864 45.4801
175 1 1 -0.834 17.2522 10.3105 15.7327
176 1 1 -0.834 22.9801 18.5561 46.2479
177 1 1 -0.834 1.92502 20.67 79.0989
178 1 1 -0.834 8.70439 2.6804 42.1233
179 1 1 -0.834 0.22677 22.5854 74.2553
180 1 1 -0.834 23.3147 7.98574 51.1879
181 1 1 -0.834 4.24337 18.5894 51.8544
182 1 1 -0.834 2.46028 20.1596 21.0138
183 1 1 -0.834 15.9736 22.3838 79.3876
184 1 1 -0.834 2.57665 2.72027 32.513
185 1 1 -0.834 9.87971 19.3643 13.5859
186 1 1 -0.834 23.2788 4.09694 51.6403
187 1 1 -0.834 4.92963 10.8255 51.2396
188 1 1 -0.834 17.0206 7.70248 43.9069
189 1 1 -0.834 3.59539 4.3982 65.5712
190 1 1 -0.834 8.69979 23.2035 44.3519
191 1 1 -0.834 15.719 18.8682 63.9477
192 1 1 -0.834 5.41952 9.6528 72.7915
193 1 1 -0.834 17.5301 17.5357 58.8851
194 1 1 -0.834 4.78954 14.827 24.7407
195 1 1 -0.834 22.0313 18.5292 29.6046
196 1 1 -0.834 7.13112 23.7824 10.5158
197 1 1 -0.834 21.5105 3.14229 67.996
198 1 1 -0.834 19.4915 20.403 62.0737
199 1 1 -0.834 18.4646 1.09868 19.8437
200 1 1 -0.834 20.3562 3.88462 55.2045
201 1 1 -0.834 4.96657 10.6035 59.2942
202 1 1 -0.834 1.17188 17.7088 60.4511
203 1 1 -0.834 18.0281 16.2348 11.0477
204 1 1 -0.834 19.5656 5.20872 74.8336
205 1 1 -0.834 19.4356 8.71836 42.2704
206 1 1 -0.834 11.5007 11.3746 68.8627
207 1 1 -0.834 11.2066 15.1232 8.27889
208 1 1 -0.834 8.48882 15.4472 56.0329
209 1 1 -0.834 11.8668 18.7471 42.3968
210 1 1 -0.834 5.25076 20.9202 39.1729
211 1 1 -0.834 12.7138 22.6135 66.9714
212 1 1 -0.834 2.01018 8.76589 63.3894
213 1 1 -0.834 7.24244 6.92089 47.0261
214 1 1 -0.834 5.93717 15.189 45.4254
215 1 1 -0.834 22.8427 11.969 15.2746
216 1 1 -0.834 6.50327 8.80444 0.599321
217 1 1 -0.834 19.6394 19.5041 47.152
218 1 1 -0.834 6.21642 2.03415 45.4237
219 1 1 -0.834 21.4412 21.2896 66.3472
220 1 1 -0.834 1.11414 12.8559 24.3076
221 1 1 -0.834 3.29902 1.82244 76.0986
222 1 1 -0.834 5.18603 2.39998 12.7761
223 1 1 -0.834 21.9088 22.9825 62.5078
224 1 1 -0.834 21.9028 0.255504 46.6345
225 1 1 -0.834 10.3086 22.4553 73.6537
226 1 1 -0.834 19.8005 2.80253 45.2815
227 1 1 -0.834 4.13554 2.29392 84.8853
228 1 1 -0.834 17.1285 9.22084 53.024
229 1 1 -0.834 8.07353 10.0856 79.8674
230 1 1 -0.834 17.1368 24.393 69.3648
231 1 1 -0.834 21.6742 9.885 78.6561
232 1 1 -0.834 17.5593 6.99152 75.6
233 1 1 -0.834 20.3608 11.3084 51.942
234 1 1 -0.834 10.2339 9.45992 44.2014
235 1 1 -0.834 15.489 24.1125 50.0126
236 1 1 -0.834 4.831 5.74462 74.0472
237 1 1 -0.834 22.5456 3.04604 46.9499
238 1 1 -0.834 9.50692 21.4361 10.6491
239 1 1 -0.834 19.9827 5.28698 18.7264
240 1 1 -0.834 22.52 14.6508 63.3089
241 1 1 -0.834 11.3903 16.2962 52.0922
242 1 1 -0.834 18.5758 5.20799 45.0631
243 1 1 -0.834 21.0065 10.9429 61.1333
244 1 1 -0.834 23.7138 10.1241 13.5275
245 1 1 -0.834 6.43175 24.0239 71.2803
246 1 1 -0.834 16.4332 6.59326 55.5652
247 1 1 -0.834 13.8099 16.6033 33.7136
248 1 1 -0.834 4.07356 18.0045 59.2097
249 1 1 -0.834 22.5694 10.4695 41.7087
250 1 1 -0.834 6.04518 7.04559 31.5691
251 1 1 -0.834 2.93324 8.35812 76.1879
252 1 1 -0.834 5.97732 5.518 52.885
253 1 1 -0.834 9.42679 10.5046 52.2009
254 1 1 -0.834 7.37494 17.4628 41.626
255 1 1 -0.834 23.374 13.9373 78.085
256 1 1 -0.834 0.32097 11.3656 58.7935
257 1 1 -0.834 16.2334 11.7842 45.4703
258 1 1 -0.834 2.05433 13.5506 18.5591
259 1 1 -0.834 19.5424 23.5528 76.6925
260 1 1 -0.834 1.39746 0.18453 49.6459
261 1 1 -0.834 20.8932 5.58306 52.6772
262 1 1 -0.834 19.1544 6.24534 56.8682
263 1 1 -0.834 12.9698 13.4453 61.1933
264 1 1 -0.834 5.91449 21.6943 74.3683
265 1 1 -0.834 20.8493 19.5151 23.6375
266 1 1 -0.834 7.12583 6.51785 1.82977
267 1 1 -0.834 5.41837 22.9118 67.6925
268 1 1 -0.834 5.44564 17.2781 24.0834
269 1 1 -0.834 15.896 14.1793 62.4698
270 1 1 -0.834 8.55181 1.10255 57.6378
271 1 1 -0.834 8.26152 14.9634 66.4163
272 1 1 -0.834 21.9866 19.1991 61.8724
273 1 1 -0.834 21.6601 0.950473 61.3631
274 1 1 -0.834 24.105 16.0761 25.3226
275 1 1 -0.834 21.2432 23.6818 30.6966
276 1 1 -0.834 16.2559 7.80069 85.2371
277 1 1 -0.834 23.3373 20.7853 49.3712
278 1 1 -0.834 13.7403 10.9891 6.33737
279 1 1 -0.834 14.69 11.7909 54.2266
280 1 1 -0.834 7.88368 10.6065 6.02662
281 1 1 -0.834 8.37483 0.425683 12.6276
282 1 1 -0.834 3.9121 15.2188 69.9343
283 1 1 -0.834 15.3676 15.6178 69.3563
284 1 1 -0.834 23.6834 1.50075 29.4194
285 1 1 -0.834 18.0499 12.2733 9.18501
286 1 1 -0.834 8.1598 3.70598 62.9422
287 1 1 -0.834 10.0168 13.2766 2.37286
288 1 1 -0.834 4.92817 16.3027 64.6084
289 1 1 -0.834 2.64464 19.3315 46.2841
290 1 1 -0.834 12.0954 16.2657 71.3729
291 1 1 -0.834 1.93912 23.2902 78.2032
292 1 1 -0.834 22.6425 5.05074 44.9331
293 1 1 -0.834 0.858263 0.825004 33.7775
294 1 1 -0.834 8.68436 22.7088 57.9332
295 1 1 -0.834 22.6619 23.834 67.7488
296 1 1 -0.834 19.7365 19.6444 30.9589
297 1 1 -0.834 7.58754 16.7457 47.8743
298 1 1 -0.834 0.28878 18.3016 21.194
299 1 1 -0.834 1.56971 23.5641 9.55582
300 1 1 -0.834 5.33849 6.94495 79.8043
301 1 1 -0.834 17.664 21.8879 3.85466
302 1 1 -0.834 5.28965 7.95002 51.1232
303 1 1 -0.834 16.7106 19.44 7.04289
304 1 1 -0.834 22.0365 22.7745 78.6931
305 1 1 -0.834 21.5449 0.621069 49.8132
306 1 1 -0.834 14.0358 23.0199 62.5449
307 1 1 -0.834 15.4958 18.6563 30.9491
308 1 1 -0.834 7.21072 2.27417 69.2414
309 1 1 -0.834 15.2784 10.754 34.419
310 1 1 -0.834 22.5047 13.5585 57.8015
311 1 1 -0.834 14.0141 7.93346 57.7944
312 1 1 -0.834 6.70288 10.1113 42.6062
313 1 1 -0.834 11.1912 11.2664 7.45576
314 1 1 -0.834 8.34658 2.80681 66.7247
315 1 1 -0.834 3.63497 0.724583 29.8829
316 1 1 -0.834 15.3546 13.4541 11.3835
317 1 1 -0.834 9.68284 17.4919 67.2791
318 1 1 -0.834 2.4979 14.6349 52.3653
319 1 1 -0.834 16.457 7.11294 22.4985
320 1 1 -0.834 22.4331 18.505 71.5459
321 1 1 -0.834 11.9623 11.2842 53.1483
322 1 1 -0.834 13.3591 0.750983 46.381
323 1 1 -0.834 20.9971 4.32335 59.0962
324 1 1 -0.834 2.96017 3.5679 68.8082
325 1 1 -0.834 3.5093 21.3207 48.9849
326 1 1 -0.834 14.1064 24.1289 81.136
327 1 1 -0.834 18.7241 15.4244 75.5778
328 1 1 -0.834 21.1748 0.315882 24.8958
329 1 1 -0.834 20.8725 13.3224 79.6742
330 1 1 -0.834 19.2675 18.6363 0.536257
331 1 1 -0.834 3.92931 17.2334 79.7435
332 1 1 -0.834 11.5721 3.46683 47.2678
333 1 1 -0.834 23.7901 15.4539 75.3271
334 1 1 -0.834 14.2742 8.88868 52.6389
335 1 1 -0.834 12.9095 20.9852 55.8723
336 1 1 -0.834 10.2505 14.9368 33.8958
337 1 1 -0.834 6.22991 18.0974 45.4443
338 1 1 -0.834 18.2644 16.6291 48.0861
339 1 1 -0.834 2.1557 0.190502 65.8601
340 1 1 -0.834 12.4732 17.2143 68.699
341 1 1 -0.834 22.5529 24.4152 53.406
342 1 1 -0.834 19.1323 21.8809 25.3649
343 1 1 -0.834 17.6271 14.8971 54.0429
344 1 1 -0.834 18.5801 22.2686 65.2743
345 1 1 -0.834 5.79495 16.6738 57.5173
346 1 1 -0.834 4.71436 10.3786 56.3377
347 1 1 -0.834 17.285 22.4401 62.7737
348 1 1 -0.834 9.10843 18.8326 81.5785
349 1 1 -0.834 4.81633 19.2404 19.8641
350 1 1 -0.834 10.4992 12.3622 4.95819
351 1 1 -0.834 19.6598 18.3405 49.7723
352 1 1 -0.834 10.7569 13.6535 43.6373
353 1 1 -0.834 22.7781 18.2289 59.3531
354 1 1 -0.834 1.14186 13.1607 79.7097
355 1 1 -0.834 3.84061 13.4742 41.8795
356 1 1 -0.834 5.33459 12.948 81.0366
357 1 1 -0.834 14.0093 5.84992 0.929613
358 1 1 -0.834 21.2221 8.50339 40.104
359 1 1 -0.834 23.168 1.27623 76.3593
360 1 1 -0.834 12.334 15.9891 81.0738
361 1 1 -0.834 2.61034 8.66419 42.0375
362 1 1 -0.834 10.8759 4.55456 0.830803
363 1 1 -0.834 1.81844 7.25242 12.0897
364 1 1 -0.834 24.327 11.8132 45.1127
365 1 1 -0.834 20.1867 18.1267 26.3374
366 1 1 -0.834 1.97346 13.6925 45.7929
367 1 1 -0.834 16.6247 9.05263 77.2639
368 1 1 -0.834 7.10564 4.04639 34.2964
369 1 1 -0.834 15.2428 4.63814 72.4159
370 1 1 -0.834 0.339987 14.6259 41.9925
371 1 1 -0.834 12.2867 12.5166 58.1315
372 1 1 -0.834 7.80352 7.1292 50.1034
373 1 1 -0.834 12.734 2.8861 58.3116
374 1 1 -0.834 13.4681 3.71345 74.4216
375 1 1 -0.834 15.8379 4.80258 61.9698
376 1 1 -0.834 0.750655 21.1444 59.9392
377 1 1 -0.834 13.6104 6.74322 85.9302
378 1 1 -0.834 18.2428 21.3389 51.8713
379 1 1 -0.834 4.2893 13.3238 44.455
380 1 1 -0.834 3.72149 19.0674 23.2109
381 1 1 -0.834 21.1252 6.38682 15.3654
382 1 1 -0.834 21.3473 22.2267 41.3717
383 1 1 -0.834 5.42944 2.10571 35.6083
384 1 1 -0.834 14.9857 3.72698 19.9927
385 1 1 -0.834 7.34718 19.9428 18.6354
386 1 1 -0.834 18.6697 10.5915 49.2562
387 1 1 -0.834 17.4682 4.79327 17.4683
388 1 1 -0.834 20.5382 16.1408 55.7712
389 1 1 -0.834 16.7788 23.1749 25.3491
390 1 1 -0.834 14.3348 9.8043 61.8851
391 1 1 -0.834 17.387 8.96804 56.4454
392 1 1 -0.834 13.2567 22.8921 48.354
393 1 1 -0.834 10.1158 20.2727 63.3186
394 1 1 -0.834 2.91068 18.3542 56.0932
395 1 1 -0.834 17.5399 19.6617 57.0512
396 1 1 -0.834 14.5504 18.3435 81.0162
397 1 1 -0.834 13.4785 24.1469 21.5687
398 1 1 -0.834 10.299 20.8198 42.7988
399 1 1 -0.834 12.5999 8.01818 67.5909
400 1 1 -0.834 20.1621 12.6552 76.7266
401 1 1 -0.834 13.3738 5.58545 59.7969
402 1 1 -0.834 14.1019 14.007 30.9034
403 1 1 -0.834 1.05692 24.3967 31.1889
404 1 1 -0.834 11.0609 3.34818 80.1309
405 1 1 -0.834 17.593 10.9018 61.5452
406 1 1 -0.834 8.56143 22.0513 71.5797
407 1 1 -0.834 10.721 23.2167 49.0162
408 1 1 -0.834 19.0377 15.1321 51.6371
409 1 1 -0.834 6.69234 7.61815 25.1187
410 1 1 -0.834 11.8441 14.032 66.0362
411 1 1 -0.834 15.6681 6.89415 18.9058
412 1 1 -0.834 13.5697 13.6635 36.6156
413 1 1 -0.834 8.41808 4.54991 60.4153
414 1 1 -0.834 19.8437 3.09535 85.4884
415 1 1 -0.834 20.7202 22.7224 3.56067
416 1 1 -0.834 8.70034 21.7476 14.5662
417 1 1 -0.834 17.2587 23.4404 73.884
418 1 1 -0.834 3.8753 4.33363 54.0533
419 1 1 -0.834 1.62938 15.7078 79.8332
420 1 1 -0.834 2.82879 14.4598 21.3624
421 1 1 -0.834 11.4182 13.7444 72.8441
422 1 1 -0.834 13.5151 11.4097 31.8205
423 1 1 -0.834 4.9814 21.3109 45.1082
424 1 1 -0.834 7.76544 24.0975 73.5486
425 1 1 -0.834 15.0349 1.08341 41.8551
426 1 1 -0.834 23.4285 7.11622 62.7339
427 1 1 -0.834 20.3008 7.13779 59.1099
428 1 1 -0.834 0.589526 4.2097 63.6611
429 1 1 -0.834 23.1051 0.694581 43.8425
430 1 1 -0.834 1.83287 9.15756 57.3059
431 1 1 -0.834 23.0457 10.0942 69.9695
432 1 1 -0.834 19.3411 7.75775 48.3224
433 1 1 -0.834 12.5347 9.76153 25.7631
434 1 1 -0.834 24.1651 12.9788 50.9726
435 1 1 -0.834 10.3107 19.8752 49.9558
436 1 1 -0.834 3.68711 22.1464 51.9933
437 1 1 -0.834 20.4289 11.9501 11.4294
438 1 1 -0.834 2.08627 10.9189 19.8071
439 1 1 -0.834 3.17287 17.1178 20.5024
440 1 1 -0.834 12.3203 2.27333 54.8629
441 1 1 -0.834 22.993 22.0336 55.0736
442 1 1 -0.834 15.4371 12.5969 81.2744
443 1 1 -0.834 23.2407 3.44532 9.29263
444 1 1 -0.834 11.0099 11.7994 64.0892
445 1 1 -0.834 21.4196 20.0303 1.64776
446 1 1 -0.834 5.14365 6.76914 3.66135
447 1 1 -0.834 1.86839 15.0295 62.3808
448 1 1 -0.834 1.10486 4.86816 13.6087
449 1 1 -0.834 4.15314 10.3531 43.7809
450 1 1 -0.834 9.063 23.8594 41.8762
451 1 1 -0.834 11.4109 18.5727 11.5272
452 1 1 -0.834 12.6054 4.02092 67.0985
453 1 1 -0.834 8.12052 11.4605 70.0225
454 1 1 -0.834 10.171 10.5901 72.7061
455 1 1 -0.834 2.31457 1.28683 62.7464
456 1 1 -0.834 2.64911 4.40832 76.4868
457 1 1 -0.834 3.25034 12.8689 86.3326
458 1 1 -0.834 10.215 19.5535 78.6369
459 1 1 -0.834 16.6255 16.9336 61.4542
460 1 1 -0.834 11.1952 20.3293 45.8342
461 1 1 -0.834 5.35636 24.1553 48.3629
462 1 1 -0.834 10.1207 1.25997 38.7149
463 1 1 -0.834 16.4522 23.7213 82.5499
464 1 1 -0.834 16.6185 23.1908 43.8493
465 1 1 -0.834 5.06841 13.062 68.4239
466 1 1 -0.834 13.4271 20.011 76.5762
467 1 1 -0.834 9.56599 4.49874 68.2254
468 1 1 -0.834 24.0598 6.08159 78.8882
469 1 1 -0.834 14.3266 4.16353 82.0162
470 1 1 -0.834 7.61379 20.099 78.2499
471 1 1 -0.834 6.69282 15.9111 69.2114
472 1 1 -0.834 21.7244 16.2931 27.788
473 1 1 -0.834 20.0074 15.4048 65.6063
474 1 1 -0.834 19.8978 22.9558 6.07826
475 1 1 -0.834 24.2824 15.2319 72.6808
476 1 1 -0.834 10.8936 12.3146 32.3563
477 1 1 -0.834 18.7127 0.337795 61.2477
478 1 1 -0.834 17.1002 19.7665 76.4829
479 1 1 -0.834 1.82921 17.497 63.2663
480 1 1 -0.834 14.6094 19.9253 33.5216
481 1 1 -0.834 4.6 13.3931 1.09872
482 1 1 -0.834 14.2389 6.24299 69.1035
483 1 1 -0.834 19.3354 9.23934 12.1601
484 1 1 -0.834 0.133907 5.21545 38.0012
485 1 1 -0.834 16.8749 22.952 87.2877
486 1 1 -0.834 8.29303 21.7324 61.7632
487 1 1 -0.834 8.9961 1.44264 45.2534
488 1 1 -0.834 18.8775 12.5951 67.1812
489 1 1 -0.834 22.7373 13.8772 55.1299
490 1 1 -0.834 14.6625 21.1642 42.2605
491 1 1 -0.834 19.8655 3.13683 48.1833
492 1 1 -0.834 20.7237 19.5288 64.4318
493 1 1 -0.834 15.1701 0.264028 23.6155
494 1 1 -0.834 15.3007 15.1964 4.43693
495 1 1 -0.834 18.4142 4.86512 83.6262
496 1 1 -0.834 16.3852 10.2375 50.7734
497 1 1 -0.834 16.2427 2.5566 54.0917
498 1 1 -0.834 23.5015 23.3915 59.7107
499 1 1 -0.834 8.08715 23.3919 48.1343
500 1 1 -0.834 20.15 0.141025 43.1514
501 1 1 -0.834 7.59613 17.4517 79.3109
502 1 1 -0.834 19.535 24.1928 55.6081
503 1 1 -0.834 22.9346 20.4578 87.0152
504 1 1 -0.834 17.1782 18.8993 28.4888
505 1 1 -0.834 3.06868 21.6665 74.7944
506 1 1 -0.834 14.214 16.1992 13.068
507 1 1 -0.834 12.6833 4.22896 70.1058
508 1 1 -0.834 13.8496 24.2112 74.7705
509 1 1 -0.834 12.6792 14.9421 11.1115
510 1 1 -0.834 19.088 24.2022 46.4965
511 1 1 -0.834 20.7809 10.7466 45.4476
512 1 1 -0.834 9.32151 4.89446 45.898
513 1 1 -0.834 20.2941 8.06828 17.4476
514 1 1 -0.834 19.3558 6.71688 37.6239
515 1 1 -0.834 13.0654 13.2999 4.97205
516 1 1 -0.834 9.69411 20.4608 69.48
517 1 1 -0.834 4.47197 2.99304 73.6736
518 1 1 -0.834 2.71102 15.4955 1.53854
519 1 1 -0.834 13.4936 21.3641 69.9747
520 1 1 -0.834 14.9418 2.86377 56.5103
521 1 1 -0.834 16.9026 12.7722 48.1308
522 1 1 -0.834 2.19655 14.9921 25.7406
523 1 1 -0.834 14.6501 12.7872 66.6251
524 1 1 -0.834 20.5926 18.2775 57.7
525 1 1 -0.834 7.77099 1.09248 15.1509
526 1 1 -0.834 13.5125 0.157958 57.5846
527 1 1 -0.834 15.5642 20.6166 49.9047
528 1 1 -0.834 0.606086 19.2578 48.0438
529 1 1 -0.834 13.3691 6.09429 62.5459
530 1 1 -0.834 23.8605 2.81315 74.0628
531 1 1 -0.834 2.2802 15.7338 86.5022
532 1 1 -0.834 1.46453 14.6291 76.9932
533 1 1 -0.834 15.9631 7.59299 71.6418
534 1 1 -0.834 15.8227 7.61037 60.7738
535 1 1 -0.834 23.2205 20.3213 74.8702
536 1 1 -0.834 6.59198 13.4224 55.1173
537 1 1 -0.834 6.48957 4.09512 77.7082
538 1 1 -0.834 1.31403 17.6572 77.8068
539 1 1 -0.834 17.4411 5.52475 64.2889
540 1 1 -0.834 13.1849 10.4746 70.8805
541 1 1 -0.834 9.69327 21.5849 38.5316
542 1 1 -0.834 7.55392 6.51723 7.07788
543 1 1 -0.834 17.5638 1.07262 43.0499
544 1 1 -0.834 17.3265 13.3109 59.8537
545 1 1 -0.834 12.5775 3.00323 61.1686
546 1 1 -0.834 17.0852 19.6269 47.9798
547 1 1 -0.834 14.5693 12.6708 72.1292
548 1 1 -0.834 23.2991 16.0884 20.5198
549 1 1 -0.834 8.9754 11.7339 56.8404
550 1 1 -0.834 9.30598 4.3164 27.7073
551 1 1 -0.834 13.4987 16.6023 61.5002
552 1 1 -0.834 15.9601 16.1491 76.6174
553 1 1 -0.834 0.57693 1.89269 57.7301
554 1 1 -0.834 5.80973 19.7737 49.3769
555 1 1 -0.834 17.923 10.0101 73.6844
556 1 1 -0.834 10.9178 0.52884 19.944
557 1 1 -0.834 19.9652 4.03407 63.9924
558 1 1 -0.834 17.0134 20.1148 43.6586
559 1 1 -0.834 20.6543 2.98156 72.4377
560 1 1 -0.834 11.7955 19.1543 70.5742
561 1 1 -0.834 3.49392 12.9017 49.4913
562 1 1 -0.834 15.3731 16.9344 72.1751
563 1 1 -0.834 1.97784 4.52173 60.7273
564 1 1 -0.834 8.02888 14.1364 50.3975
565 1 1 -0.834 23.668 4.10498 54.8005
566 1 1 -0.834 1.26145 3.99178 66.7841
567 1 1 -0.834 7.78846 9.05085 45.363
568 1 1 -0.834 13.5666 7.91094 43.7074
569 1 1 -0.834 9.49828 17.6046 37.3777
570 1 1 -0.834 7.19056 15.4586 72.8226
571 1 1 -0.834 8.92244 6.35091 72.3702
572 1 1 -0.834 10.9495 5.12213 24.4529
573 1 1 -0.834 2.67509 9.38437 51.8714
574 1 1 -0.834 8.36572 21.4751 53.3497
575 1 1 -0.834 10.289 1.0502 62.8364
576 1 1 -0.834 9.64392 7.52137 2.14764
577 1 1 -0.834 6.36474 19.8618 36.8687
578 1 1 -0.834 8.57806 21.9494 83.1403
579 1 1 -0.834 15.5265 2.20528 74.7429
580 1 1 -0.834 4.90304 17.4891 17.3735
581 1 1 -0.834 24.0232 10.8914 83.0577
582 1 1 -0.834 9.46438 2.2213 77.9986
583 1 1 -0.834 11.5271 0.579331 67.164
584 1 1 -0.834 19.231 11.771 39.0377
585 1 1 -0.834 22.1789 5.79979 76.9219
586 1 1 -0.834 0.612944 3.79531 78.6813
587 1 1 -0.834 20.2784 7.55012 77.977
588 1 1 -0.834 1.9128 21.6871 2.6704
589 1 1 -0.834 21.4882 2.16817 65.2373
590 1 1 -0.834 23.2718 6.82452 17.5241
591 1 1 -0.834 6.85001 4.52497 31.5868
592 1 1 -0.834 18.9729 21.815 42.4798
593 1 1 -0.834 13.2007 14.8212 53.7873
594 1 1 -0.834 9.90811 19.6882 59.9323
595 1 1 -0.834 21.6809 21.2031 72.2802
596 1 1 -0.834 14.893 20.0712 53.1517
597 1 1 -0.834 10.1273 7.05828 28.0153
598 1 1 -0.834 16.2374 1.94703 67.8579
599 1 1 -0.834 6.4464 23.0197 56.1342
600 1 1 -0.834 22.6101 5.98191 39.774
601 1 1 -0.834 7.128 17.9383 38.9708
602 1 1 -0.834 2.53421 3.39084 82.709
603 1 1 -0.834 9.13284 23.4846 16.4082
604 1 1 -0.834 17.9465 12.2627 33.5321
605 1 1 -0.834 4.66646 15.7468 61.5385
606 1 1 -0.834 11.513 7.4397 58.9175
607 1 1 -0.834 18.2747 21.9439 30.0413
608 1 1 -0.834 19.349 5.28985 68.8618
609 1 1 -0.834 2.54652 11.2656 65.2935
610 1 1 -0.834 12.5437 18.602 63.6569
611 1 1 -0.834 17.0406 1.57623 78.8232
612 1 1 -0.834 3.82479 4.62215 5.36947
613 1 1 -0.834 0.363647 16.9508 65.7156
614 1 1 -0.834 7.55976 12.3998 23.0633
615 1 1 -0.834 3.67982 1.91549 70.8667
616 1 1 -0.834 0.964102 12.3439 84.8696
617 1 1 -0.834 15.8487 22.9041 67.4996
618 1 1 -0.834 18.961 11.673 17.4629
619 1 1 -0.834 17.1551 5.24475 77.8786
620 1 1 -0.834 13.9792 15.2182 74.3242
621 1 1 -0.834 8.99573 11.5665 43.0297
622 1 1 -0.834 23.0711 12.0875 62.3225
623 1 1 -0.834 13.4121 10.7944 65.0711
624 1 1 -0.834 3.29069 24.2932 35.1046
625 1 1 -0.834 11.0972 21.0267 81.1087
626 1 1 -0.834 11.1506 23.6827 56.4962
627 1 1 -0.834 7.87064 22.5717 18.8012
628 1 1 -0.834 8.70539 21.2845 35.6627
629 1 1 -0.834 15.5857 3.09024 16.4249
630 1 1 -0.834 3.58652 4.85788 12.0675
631 1 1 -0.834 7.85248 0.321204 51.6225
632 1 1 -0.834 6.17751 21.3773 42.42
633 1 1 -0.834 16.8226 3.15855 21.869
634 1 1 -0.834 7.18386 11.0631 29.478
635 1 1 -0.834 20.7039 15.0066 61.3891
636 1 1 -0.834 8.32967 2.16922 71.8575
637 1 1 -0.834 15.0865 3.81578 41.263
638 1 1 -0.834 14.3148 22.6735 59.6572
639 1 1 -0.834 18.08 7.71657 14.9001
640 1 1 -0.834 6.97712 21.4544 12.3727
641 1 1 -0.834 1.09535 4.55889 57.7178
642 1 1 -0.834 18.1748 10.1911 68.5362
643 1 1 -0.834 19.4607 18.9107 69.6057
644 1 1 -0.834 1.17972 19.7763 0.385963
645 1 1 -0.834 15.4651 22.379 75.9283
646 1 1 -0.834 7.81099 14.1083 58.1063
647 1 1 -0.834 1.91337 20.0278 43.7302
648 1 1 -0.834 2.78501 15.5758 67.3796
649 1 1 -0.834 1.17521 8.07961 39.0176
650 1 1 -0.834 14.7997 7.95029 45.9803
651 1 1 -0.834 17.1594 5.83035 86.9907
652 1 1 -0.834 4.97991 2.69007 61.373
653 1 1 -0.834 18.4962 8.08807 61.7715
654 1 1 -0.834 14.255 3.60232 86.5845
655 1 1 -0.834 9.94577 19.5071 18.5251
656 1 1 -0.834 7.69172 11.6049 60.0019
657 1 1 -0.834 16.9697 24.2043 59.2443
658 1 1 -0.834 15.7184 15.9397 57.6973
659 1 1 -0.834 16.3622 22.8534 71.4098
660 1 1 -0.834 23.645 14.7169 68.3086
661 1 1 -0.834 4.57281 2.93184 51.6907
662 1 1 -0.834 18.3056 0.882034 26.2479
663 1 1 -0.834 4.04232 23.7237 64.2127
664 1 1 -0.834 17.4304 20.5985 1.40371
665 1 1 -0.834 9.00738 18.0393 56.2306
666 1 1 -0.834 14.6237 23.6808 65.2033
667 1 1 -0.834 18.2724 5.27682 23.2985
668 1 1 -0.834 9.42006 9.00883 70.2905
669 1 1 -0.834 6.46292 8.97067 76.3665
670 1 1 -0.834 5.41838 21.7665 70.1098
671 1 1 -0.834 8.26301 21.3382 75.896
672 1 1 -0.834 2.70854 10.4229 48.2502
673 1 1 -0.834 3.8868 12.6559 57.7702
674 1 1 -0.834 19.0573 3.31525 66.6144
675 1 1 -0.834 5.66367 5.24275 59.2736
676 1 1 -0.834 2.71755 11.0447 22.3193
677 1 1 -0.834 2.54761 19.1112 72.3544
678 1 1 -0.834 10.602 8.49969 65.2217
679 1 1 -0.834 5.71841 20.3999 53.4955
680 1 1 -0.834 20.5728 1.12205 58.601
681 1 1 -0.834 7.10805 6.16361 76.055
682 1 1 -0.834 18.4353 15.6658 6.79318
683 1 1 -0.834 10.1454 9.19471 87.3643
684 1 1 -0.834 12.0814 20.1885 52.8205
685 1 1 -0.834 10.0414 20.578 55.3118
686 1 1 -0.834 16.1804 14.574 8.53443
687 1 1 -0.834 24.3651 10.1326 54.7186
688 1 1 -0.834 17.664 2.22355 62.9034
689 1 1 -0.834 23.5753 20.7854 63.3698
690 1 1 -0.834 1.94416 5.38734 32.5865
691 1 1 -0.834 10.5346 11.6713 47.8068
692 1 1 -0.834 3.82665 19.3548 63.5042
693 1 1 -0.834 6.99151 5.01862 9.50923
694 1 1 -0.834 11.8037 8.40156 75.9068
695 1 1 -0.834 22.3319 16.9022 68.9502
696 1 1 -0.834 3.80059 5.74015 50.6848
697 1 1 -0.834 5.42099 15.2563 48.6774
698 1 1 -0.834 24.1504 17.9032 86.0632
699 1 1 -0.834 8.79536 12.7347 76.5456
700 1 1 -0.834 19.497 8.16166 51.9632
701 1 1 -0.834 0.341287 18.4564 80.2973
702 1 1 -0.834 18.9539 5.10145 71.6502
703 1 1 -0.834 16.4626 21.0024 27.0528
704 1 1 -0.834 15.8147 1.28172 71.9606
705 1 1 -0.834 18.5763 0.923055 82.7444
706 1 1 -0.834 3.35795 19.4349 85.9176
707 1 1 -0.834 5.72126 21.6416 79.7736
708 1 1 -0.834 17.2019 0.0312423 54.0035
709 1 1 -0.834 24.2612 0.637389 63.5129
710 1 1 -0.834 11.3081 13.8909 77.9978
711 1 1 -0.834 15.5032 5.05108 53.3407
712 1 1 -0.834 21.5854 21.3506 32.1785
713 1 1 -0.834 13.5611 20.1539 11.7868
714 1 1 -0.834 21.9157 19.8968 79.2804
715 1 1 -0.834 5.31858 14.976 74.692
716 1 1 -0.834 16.7039 14.1905 73.8709
717 1 1 -0.834 11.2875 22.4098 51.4573
718 1 1 -0.834 5.78994 7.13219 67.3342
719 1 1 -0.834 12.6547 18.4412 49.8095
720 1 1 -0.834 4.53536 24.0142 12.5652
721 1 1 -0.834 10.2705 11.682 24.6982
722 1 1 -0.834 9.67276 5.6218 77.2023
723 1 1 -0.834 11.4722 19.6711 66.2209
724 1 1 -0.834 10.6996 13.3349 50.8356
725 1 1 -0.834 3.50256 19.9077 67.641
726 1 1 -0.834 19.5277 23.2466 79.4606
727 1 1 -0.834 13.7664 18.3915 55.7777
728 1 1 -0.834 13.4336 22.1626 39.4762
729 1 1 -0.834 20.4608 13.1085 69.3763
730 1 1 -0.834 14.8023 5.4565 23.9611
731 1 1 -0.834 13.6367 8.77373 72.9698
732 1 1 -0.834 10.591 23.6677 82.9404
733 1 1 -0.834 20.2413 9.4688 69.9059
734 1 1 -0.834 11.8257 18.0445 47.259
735 1 1 -0.834 19.4453 1.5618 1.33541
736 1 1 -0.834 21.6752 10.1412 49.3055
737 1 1 -0.834 22.1729 6.07817 57.3272
738 1 1 -0.834 16.7169 13.7692 50.6629
739 1 1 -0.834 10.7861 6.66117 53.7773
740 1 1 -0.834 15.7394 11.676 63.6678
741 1 1 -0.834 6.6388 9.01237 69.4952
742 1 1 -0.834 17.6892 2.98496 87.5737
743 1 1 -0.834 15.725 3.29968 59.4101
744 1 1 -0.834 11.3573 8.19663 41.815
745 1 1 -0.834 21.0208 14.5374 73.0387
746 1 1 -0.834 14.8878 21.2748 47.1577
747 1 1 -0.834 18.682 3.14531 59.0139
748 1 1 -0.834 7.68184 19.7515 58.4233
749 1 1 -0.834 7.39568 11.0214 50.1788
750 1 1 -0.834 17.9551 15.0704 67.4857
751 1 1 -0.834 17.5223 19.4965 79.2591
752 1 1 -0.834 4.62689 8.72962 26.8053
753 1 1 -0.834 17.7037 14.0429 31.425
754 1 1 -0.834 15.7192 9.05603 67.9392
755 1 1 -0.834 23.3239 15.0493 85.723
756 1 1 -0.834 11.2489 7.60845 71.6776
757 1 1 -0.834 4.76726 4.65642 70.8864
758 1 1 -0.834 22.1768 6.25955 80.8248
759 1 1 -0.834 21.4738 20.8842 69.5885
760 1 1 -0.834 8.9467 3.11375 48.265
761 1 1 -0.834 2.85619 21.6529 71.3578
762 1 1 -0.834 8.78476 10.7761 65.3845
763 1 1 -0.834 15.3338 11.4559 68.9992
764 1 1 -0.834 6.78907 10.6647 47.4562
765 1 1 -0.834 7.94657 10.8007 25.6867
766 1 1 -0.834 19.3641 10.729 54.6979
767 1 1 -0.834 23.4223 11.7713 19.7992
768 1 1 -0.834 5.9285 18.3307 62.0361