 DBCSR| CPU Multiplication driver                                           XSMM (U)
 DBCSR| Multrec recursion limit                                              512 (U)
 DBCSR| Multiplication stack size                                           1000 (D)
 DBCSR| Maximum elements for images                                    UNLIMITED (U)
 DBCSR| Multiplicative factor virtual images                                   1 (U)
 DBCSR| Use multiplication densification                                       T (D)
 DBCSR| Multiplication size stacks                                             3 (U)
 DBCSR| Use memory pool for CPU allocation                                     F (U)
 DBCSR| Number of 3D layers                                               SINGLE (U)
 DBCSR| Use MPI memory allocation                                              F (U)
 DBCSR| Use RMA algorithm                                                      F (U)
 DBCSR| Use Communication thread                                               T (U)
 DBCSR| Communication thread load                                             87 (D)
 DBCSR| MPI: My process id                                                     0
 DBCSR| MPI: Number of processes                                              24
 DBCSR| OMP: Current number of threads                                         1
 DBCSR| OMP: Max number of threads                                             1
 DBCSR| Split modifier for TAS multiplication algorithm                  1.0E+00 (U)


  **** **** ******  **  PROGRAM STARTED AT               2025-01-28 14:24:16.986
 ***** ** ***  *** **   PROGRAM STARTED ON                     c0140.ten.osc.edu
 **    ****   ******    PROGRAM STARTED BY                               xiutinc
 ***** **    ** ** **   PROGRAM PROCESS ID                                880289
  **** **  *******  **  PROGRAM STARTED IN /fs/scratch/PAS2536/xiutinc/386237.ad
                                           l02_01_02_propanol

 CP2K| version string:                                       CP2K version 2023.2
 CP2K| source code revision number:                                  git:65cca6c
 CP2K| cp2kflags: omp libint fftw3 libxc parallel scalapack xsmm plumed2 mkl sir
 CP2K|            ius
 CP2K| is freely available from                            https://www.cp2k.org/
 CP2K| Program compiled at                          Mon Oct 14 13:01:09 EDT 2024
 CP2K| Program compiled on                             cardinal-rw02.ten.osc.edu
 CP2K| Program compiled for                       linux-rhel9-sapphirerapids-gcc
 CP2K| Data directory path    /apps/spack/0.21/cardinal/linux-rhel9-sapphirerapi
 CP2K| Input file name                                             intE06_aq.inp

 GLOBAL| Force Environment number                                              1
 GLOBAL| Basis set file name                                          BASIS_file
 GLOBAL| Potential file name                                     POTENTIALS_file
 GLOBAL| MM Potential file name                                     MM_POTENTIAL
 GLOBAL| Coordinate file name                                    ./intE06_aq.xyz
 GLOBAL| Method name                                                        CP2K
 GLOBAL| Project name                                                  intE06_aq
 GLOBAL| Run type                                                        GEO_OPT
 GLOBAL| FFT library                                                       FFTW3
 GLOBAL| Diagonalization library                                       ScaLAPACK
 GLOBAL| DGEMM library                                                      BLAS
 GLOBAL| Orthonormality check for eigenvectors                          DISABLED
 GLOBAL| Matrix multiplication library                                 ScaLAPACK
 GLOBAL| All-to-all communication in single precision                          F
 GLOBAL| FFTs using library dependent lengths                                  F
 GLOBAL| Grid backend                                                       AUTO
 GLOBAL| Global print level                                                  LOW
 GLOBAL| MPI I/O enabled                                                       T
 GLOBAL| Total number of message passing processes                            24
 GLOBAL| Number of threads for this process                                    1
 GLOBAL| This output is from process                                           0
 GLOBAL| Stack size for threads created by OpenMP (OMP_STACKSIZE)        default
 GLOBAL| CPU model name                            Intel(R) Xeon(R) CPU Max 9470
 GLOBAL| CPUID                                                              1003

 MEMORY| system memory details [Kb]
 MEMORY|                        rank 0           min           max       average
 MEMORY| MemTotal            662060584     662060584     662060584     662060584
 MEMORY| MemFree             639985764     639985764     639985764     639985764
 MEMORY| Buffers                 74440         74440         74440         74440
 MEMORY| Cached                1354512       1354512       1354512       1354512
 MEMORY| Slab                  1058204       1058204       1058204       1058204
 MEMORY| SReclaimable           258064        258064        258064        258064
 MEMORY| MemLikelyFree       641672780     641672780     641672780     641672780


 *******************************************************************************
 *******************************************************************************
 **                                                                           **
 **     #####                         ##              ##                      **
 **    ##   ##            ##          ##              ##                      **
 **   ##     ##                       ##            ######                    **
 **   ##     ##  ##   ##  ##   #####  ##  ##   ####   ##    #####    #####    **
 **   ##     ##  ##   ##  ##  ##      ## ##   ##      ##   ##   ##  ##   ##   **
 **   ##  ## ##  ##   ##  ##  ##      ####     ###    ##   ######   ######    **
 **    ##  ###   ##   ##  ##  ##      ## ##      ##   ##   ##       ##        **
 **     #######   #####   ##   #####  ##  ##  ####    ##    #####   ##        **
 **           ##                                                    ##        **
 **                                                                           **
 **                                                ... make the atoms dance   **
 **                                                                           **
 **            Copyright (C) by CP2K developers group (2000-2023)             **
 **                      J. Chem. Phys. 152, 194103 (2020)                    **
 **                                                                           **
 *******************************************************************************


 TOTAL NUMBERS AND MAXIMUM NUMBERS

  Total number of            - Atomic kinds:                                   5
                             - Atoms:                                        654
                             - Shell sets:                                   654
                             - Shells:                                      3165
                             - Primitive Cartesian functions:               3081
                             - Cartesian basis functions:                   8687
                             - Spherical basis functions:                   8083

  Maximum angular momentum of- Orbital basis functions:                        3
                             - Local part of the GTH pseudopotential:          2
                             - Non-local part of the GTH pseudopotential:      3


 SCF PARAMETERS         Density guess:                                   RESTART
                        --------------------------------------------------------
                        max_scf:                                             500
                        max_scf_history:                                       0
                        max_diis:                                              4
                        --------------------------------------------------------
                        eps_scf:                                        1.00E-06
                        eps_scf_history:                                0.00E+00
                        eps_diis:                                       1.00E-01
                        eps_eigval:                                     1.00E-05
                        --------------------------------------------------------
                        level_shift [a.u.]:                             0.000000
                        --------------------------------------------------------
                        Outer loop SCF in use 
                        No variables optimised in outer loop
                        eps_scf                                         1.00E-06
                        max_scf                                               50
                        No outer loop optimization
                        step_size                                       5.00E-01

 BFGS| Use rational function optimization for step estimation:                NO
 BFGS| Use model Hessian for initial guess:                                  YES
 BFGS| Restart Hessian:                                                       NO
 BFGS| Trust radius:                                                       0.472

 *******************************************************************************
 ***                     STARTING GEOMETRY OPTIMIZATION                      ***
 ***                                   BFGS                                  ***
 *******************************************************************************

 Number of electrons:                                                       3260
 Number of occupied orbitals:                                               1630
 Number of molecular orbitals:                                              1630

 Number of orbital functions:                                               8083
 Number of independent orbital functions:                                   8083

 Extrapolation method: initial_guess

 *** WARNING in qs_initial_guess.F:305 :: User requested to restart the   ***
 *** wavefunction from the file named: intE06_aq-RESTART.wfn. This file   ***
 *** does not exist. Please check the existence of the file or change     ***
 *** properly the value of the keyword WFN_RESTART_FILE_NAME. Calculation ***
 *** continues using ATOMIC GUESS.                                        ***



 SCF WAVEFUNCTION OPTIMIZATION

  ----------------------------------- OT ---------------------------------------
  Minimizer      : CG                  : conjugate gradient
  Preconditioner : FULL_ALL            : diagonalization, state selective
  Precond_solver : DEFAULT
  Line search    : 2PNT                : 2 energies, one gradient
  stepsize       :    0.15000000                  energy_gap     :    0.00100000
  eps_taylor     :   0.10000E-15                  max_taylor     :             4
  ----------------------------------- OT ---------------------------------------

  Step     Update method      Time    Convergence         Total energy    Change
  ------------------------------------------------------------------------------
     1 OT CG       0.15E+00   22.7     0.01611905     -7093.4051857732 -7.09E+03
     2 OT LS       0.68E-01    2.5                    -7044.3167866038
     3 OT CG       0.68E-01    5.6     0.07279084     -7018.9753461576  7.44E+01
     4 OT LS       0.12E-01    2.5                    -5397.6279234264
     5 OT CG       0.12E-01    5.6     0.02752686     -7027.9648504210 -8.99E+00
     6 OT LS       0.12E-01    2.4                    -7074.3450595835
     7 OT CG       0.12E-01    5.6     0.01229696     -7075.0064243792 -4.70E+01
     8 OT LS       0.49E-01    2.4                    -7098.2279200664
     9 OT CG       0.49E-01    5.6     0.00921334     -7153.5080671211 -7.85E+01
    10 OT LS       0.14E+00    2.5                    -7198.1935459533
    11 OT CG       0.14E+00    5.6     0.01057589     -7223.4719715578 -7.00E+01
    12 OT LS       0.30E-01    2.5                    -7006.8508184742
    13 OT CG       0.30E-01    5.6     0.00769685     -7237.4566602097 -1.40E+01
    14 OT LS       0.65E-01    2.5                    -7253.4002999182
    15 OT CG       0.65E-01    5.6     0.00536036     -7261.3442028870 -2.39E+01
    16 OT LS       0.66E-01    2.4                    -7274.3971141430
    17 OT CG       0.66E-01    5.6     0.00467920     -7274.3765728184 -1.30E+01
    18 OT LS       0.46E-01    2.4                    -7279.5376137200
    19 OT CG       0.46E-01    5.6     0.00311812     -7280.4854680123 -6.11E+00
    20 OT LS       0.91E-01    2.5                    -7284.9336424073
    21 OT CG       0.91E-01    5.6     0.00297656     -7286.1245541816 -5.64E+00
    22 OT LS       0.59E-01    2.5                    -7288.3485573754
    23 OT CG       0.59E-01    5.6     0.00244988     -7289.2652208299 -3.14E+00
    24 OT LS       0.87E-01    2.5                    -7292.3526203329
    25 OT CG       0.87E-01    5.6     0.00253988     -7292.6550118202 -3.39E+00
    26 OT LS       0.61E-01    2.5                    -7294.6440055702
    27 OT CG       0.61E-01    5.6     0.00215758     -7295.0635423672 -2.41E+00
    28 OT LS       0.89E-01    2.5                    -7297.5234232183
    29 OT CG       0.89E-01    5.6     0.00216145     -7297.7756583938 -2.71E+00
    30 OT LS       0.72E-01    2.5                    -7299.8243187130
    31 OT CG       0.72E-01    5.6     0.00203168     -7299.9568027570 -2.18E+00
    32 OT LS       0.83E-01    2.5                    -7302.1604902832
    33 OT CG       0.83E-01    5.6     0.00195363     -7302.2008940737 -2.24E+00
    34 OT LS       0.82E-01    2.4                    -7304.2557948460
    35 OT CG       0.82E-01    5.6     0.00177920     -7304.2556462041 -2.05E+00
    36 OT LS       0.84E-01    2.5                    -7306.0224659528
    37 OT CG       0.84E-01    5.6     0.00174348     -7306.0229939222 -1.77E+00
    38 OT LS       0.78E-01    2.4                    -7307.5615206418
    39 OT CG       0.78E-01    5.6     0.00156688     -7307.5721532566 -1.55E+00
    40 OT LS       0.89E-01    2.4                    -7308.9865598157
    41 OT CG       0.89E-01    5.6     0.00149839     -7309.0093812445 -1.44E+00
    42 OT LS       0.84E-01    2.4                    -7310.2411799443
    43 OT CG       0.84E-01    5.7     0.00143062     -7310.2465490931 -1.24E+00
    44 OT LS       0.82E-01    2.5                    -7311.3454667162
    45 OT CG       0.82E-01    5.6     0.00132876     -7311.3461046028 -1.10E+00
    46 OT LS       0.89E-01    2.4                    -7312.3769742961
    47 OT CG       0.89E-01    5.6     0.00125350     -7312.3837604067 -1.04E+00
    48 OT LS       0.90E-01    2.5                    -7313.3072770077
    49 OT CG       0.90E-01    5.6     0.00122851     -7313.3072568281 -9.23E-01
    50 OT LS       0.85E-01    2.4                    -7314.1481793386
    51 OT CG       0.85E-01    5.6     0.00115477     -7314.1504510054 -8.43E-01
    52 OT LS       0.89E-01    2.4                    -7314.9275418258
    53 OT CG       0.89E-01    5.6     0.00109103     -7314.9287659648 -7.78E-01
    54 OT LS       0.90E-01    2.4                    -7315.6371011742
    55 OT CG       0.90E-01    5.6     0.00104019     -7315.6372364612 -7.08E-01
    56 OT LS       0.90E-01    2.4                    -7316.2729582408
    57 OT CG       0.90E-01    5.6     0.00099203     -7316.2730265174 -6.36E-01
    58 OT LS       0.90E-01    2.4                    -7316.8522022804
    59 OT CG       0.90E-01    5.6     0.00092779     -7316.8522037963 -5.79E-01
    60 OT LS       0.92E-01    2.5                    -7317.3726718806
    61 OT CG       0.92E-01    5.6     0.00088460     -7317.3729772481 -5.21E-01
    62 OT LS       0.90E-01    2.4                    -7317.8380107124
    63 OT CG       0.90E-01    5.6     0.00083856     -7317.8382041988 -4.65E-01
    64 OT LS       0.92E-01    2.5                    -7318.2626308088
    65 OT CG       0.92E-01    5.6     0.00079654     -7318.2627401574 -4.25E-01
    66 OT LS       0.93E-01    2.5                    -7318.6492235580
    67 OT CG       0.93E-01    5.6     0.00075816     -7318.6492565508 -3.87E-01
    68 OT LS       0.91E-01    2.4                    -7318.9955063046
    69 OT CG       0.91E-01    7.4     0.00072612     -7318.9955727229 -3.46E-01
    70 OT LS       0.91E-01    2.4                    -7319.3108822891
    71 OT CG       0.91E-01    5.6     0.00068557     -7319.3109093386 -3.15E-01
    72 OT LS       0.94E-01    2.4                    -7319.5997401826
    73 OT CG       0.94E-01    5.6     0.00065084     -7319.5999649145 -2.89E-01
    74 OT LS       0.92E-01    2.5                    -7319.8566949493
    75 OT CG       0.92E-01    5.6     0.00061905     -7319.8567476142 -2.57E-01
    76 OT LS       0.92E-01    2.4                    -7320.0881967679
    77 OT CG       0.92E-01    5.6     0.00058611     -7320.0882029720 -2.31E-01
    78 OT LS       0.93E-01    2.4                    -7320.2981171922
    79 OT CG       0.93E-01    5.7     0.00055487     -7320.2981416573 -2.10E-01
    80 OT LS       0.94E-01    2.5                    -7320.4881150632
    81 OT CG       0.94E-01    5.6     0.00053073     -7320.4881353078 -1.90E-01
    82 OT LS       0.92E-01    2.4                    -7320.6589815167
    83 OT CG       0.92E-01    5.6     0.00050574     -7320.6590312041 -1.71E-01
    84 OT LS       0.94E-01    2.5                    -7320.8169083307
    85 OT CG       0.94E-01    5.6     0.00048440     -7320.8169518139 -1.58E-01
    86 OT LS       0.94E-01    2.5                    -7320.9625520063
    87 OT CG       0.94E-01    5.7     0.00046625     -7320.9625543849 -1.46E-01
    88 OT LS       0.94E-01    2.5                    -7321.0972543908
    89 OT CG       0.94E-01    5.6     0.00044885     -7321.0972544373 -1.35E-01
    90 OT LS       0.94E-01    2.4                    -7321.2221195539
    91 OT CG       0.94E-01    5.6     0.00043073     -7321.2221195532 -1.25E-01
    92 OT LS       0.95E-01    2.5                    -7321.3380031383
    93 OT CG       0.95E-01    5.6     0.00041449     -7321.3380088095 -1.16E-01
    94 OT LS       0.95E-01    2.5                    -7321.4451292532
    95 OT CG       0.95E-01    5.6     0.00039942     -7321.4451298627 -1.07E-01
    96 OT LS       0.94E-01    2.5                    -7321.5442950423
    97 OT CG       0.94E-01    5.6     0.00038359     -7321.5442956750 -9.92E-02
    98 OT LS       0.95E-01    2.4                    -7321.6361406801
    99 OT CG       0.95E-01    5.6     0.00036959     -7321.6361424910 -9.18E-02
   100 OT LS       0.95E-01    2.4                    -7321.7215536880
   101 OT CG       0.95E-01    5.6     0.00035694     -7321.7215537882 -8.54E-02
   102 OT LS       0.95E-01    2.5                    -7321.8012823609
   103 OT CG       0.95E-01    5.6     0.00034443     -7321.8012823481 -7.97E-02
   104 OT LS       0.95E-01    2.4                    -7321.8757149253
   105 OT CG       0.95E-01    5.6     0.00033206     -7321.8757155855 -7.44E-02
   106 OT LS       0.96E-01    2.4                    -7321.9450901273
   107 OT CG       0.96E-01    5.6     0.00032155     -7321.9450907699 -6.94E-02
   108 OT LS       0.95E-01    2.5                    -7322.0100117420
   109 OT CG       0.95E-01    5.6     0.00031059     -7322.0100121492 -6.49E-02
   110 OT LS       0.96E-01    2.5                    -7322.0709465610
   111 OT CG       0.96E-01    5.6     0.00029981     -7322.0709485647 -6.09E-02
   112 OT LS       0.96E-01    2.4                    -7322.1276187423
   113 OT CG       0.96E-01    5.6     0.00028936     -7322.1276189066 -5.67E-02
   114 OT LS       0.96E-01    2.4                    -7322.1804110115
   115 OT CG       0.96E-01    5.6     0.00028078     -7322.1804110136 -5.28E-02
   116 OT LS       0.95E-01    2.5                    -7322.2299491908
   117 OT CG       0.95E-01    5.7     0.00027187     -7322.2299498298 -4.95E-02
   118 OT LS       0.96E-01    2.4                    -7322.2766573394
   119 OT CG       0.96E-01    5.6     0.00026392     -7322.2766586854 -4.67E-02
   120 OT LS       0.96E-01    2.4                    -7322.3208540701
   121 OT CG       0.96E-01    5.6     0.00025659     -7322.3208548340 -4.42E-02
   122 OT LS       0.96E-01    2.4                    -7322.3626830350
   123 OT CG       0.96E-01    5.6     0.00025039     -7322.3626831121 -4.18E-02
   124 OT LS       0.96E-01    2.4                    -7322.4024670915
   125 OT CG       0.96E-01    5.7     0.00024392     -7322.4024671752 -3.98E-02
   126 OT LS       0.97E-01    2.4                    -7322.4403668248
   127 OT CG       0.97E-01    5.6     0.00023738     -7322.4403673136 -3.79E-02
   128 OT LS       0.97E-01    2.4                    -7322.4762843708
   129 OT CG       0.97E-01    5.6     0.00023124     -7322.4762843915 -3.59E-02
   130 OT LS       0.97E-01    2.4                    -7322.5105096291
   131 OT CG       0.97E-01    5.6     0.00022533     -7322.5105101947 -3.42E-02
   132 OT LS       0.96E-01    2.5                    -7322.5427104178
   133 OT CG       0.96E-01    5.6     0.00021971     -7322.5427132648 -3.22E-02
   134 OT LS       0.96E-01    2.5                    -7322.5733854688
   135 OT CG       0.96E-01    5.6     0.00021409     -7322.5733855639 -3.07E-02
   136 OT LS       0.97E-01    2.5                    -7322.6025706509
   137 OT CG       0.97E-01    5.6     0.00020911     -7322.6025707900 -2.92E-02
   138 OT LS       0.97E-01    2.5                    -7322.6304821326
   139 OT CG       0.97E-01    5.6     0.00020469     -7322.6304823026 -2.79E-02
   140 OT LS       0.96E-01    2.5                    -7322.6571104764
   141 OT CG       0.96E-01    5.6     0.00019973     -7322.6571110405 -2.66E-02
   142 OT LS       0.97E-01    2.4                    -7322.6826895860
   143 OT CG       0.97E-01    5.6     0.00019538     -7322.6826915788 -2.56E-02
   144 OT LS       0.97E-01    2.4                    -7322.7071629778
   145 OT CG       0.97E-01    5.6     0.00019109     -7322.7071629800 -2.45E-02
   146 OT LS       0.97E-01    2.4                    -7322.7305736021
   147 OT CG       0.97E-01    5.6     0.00018697     -7322.7305736024 -2.34E-02
   148 OT LS       0.97E-01    2.5                    -7322.7529703836
   149 OT CG       0.97E-01    5.6     0.00018287     -7322.7529703984 -2.24E-02
   150 OT LS       0.97E-01    2.4                    -7322.7744415298
   151 OT CG       0.97E-01    5.6     0.00017942     -7322.7744416142 -2.15E-02
   152 OT LS       0.97E-01    2.4                    -7322.7950530700
   153 OT CG       0.97E-01    5.6     0.00017606     -7322.7950532323 -2.06E-02
   154 OT LS       0.97E-01    2.4                    -7322.8148721954
   155 OT CG       0.97E-01    5.6     0.00017288     -7322.8148722342 -1.98E-02
   156 OT LS       0.97E-01    2.5                    -7322.8340313367
   157 OT CG       0.97E-01    5.6     0.00016969     -7322.8340314657 -1.92E-02
   158 OT LS       0.97E-01    2.4                    -7322.8525158436
   159 OT CG       0.97E-01    5.6     0.00016664     -7322.8525158720 -1.85E-02
   160 OT LS       0.98E-01    2.4                    -7322.8703544967
   161 OT CG       0.98E-01    5.6     0.00016356     -7322.8703545007 -1.78E-02
   162 OT LS       0.98E-01    2.4                    -7322.8875409686
   163 OT CG       0.98E-01    5.6     0.00016015     -7322.8875409681 -1.72E-02
   164 OT LS       0.98E-01    2.4                    -7322.9041069976
   165 OT CG       0.98E-01    5.6     0.00015742     -7322.9041074783 -1.66E-02
   166 OT LS       0.97E-01    2.5                    -7322.9199917183
   167 OT CG       0.97E-01    5.6     0.00015419     -7322.9199926809 -1.59E-02
   168 OT LS       0.98E-01    2.5                    -7322.9353126755
   169 OT CG       0.98E-01    5.7     0.00015139     -7322.9353130752 -1.53E-02
   170 OT LS       0.98E-01    2.5                    -7322.9500438905
   171 OT CG       0.98E-01    5.6     0.00014864     -7322.9500439828 -1.47E-02
   172 OT LS       0.97E-01    2.4                    -7322.9642134774
   173 OT CG       0.97E-01    5.6     0.00014580     -7322.9642135392 -1.42E-02
   174 OT LS       0.98E-01    2.4                    -7322.9778861580
   175 OT CG       0.98E-01    5.6     0.00014312     -7322.9778862529 -1.37E-02
   176 OT LS       0.98E-01    2.4                    -7322.9910714968
   177 OT CG       0.98E-01    5.6     0.00014094     -7322.9910715039 -1.32E-02
   178 OT LS       0.97E-01    2.4                    -7323.0038104025
   179 OT CG       0.97E-01    5.6     0.00013818     -7323.0038105733 -1.27E-02
   180 OT LS       0.98E-01    2.4                    -7323.0161387511
   181 OT CG       0.98E-01    5.6     0.00013621     -7323.0161393438 -1.23E-02
   182 OT LS       0.97E-01    2.5                    -7323.0280490054
   183 OT CG       0.97E-01    5.7     0.00013386     -7323.0280494586 -1.19E-02
   184 OT LS       0.98E-01    2.5                    -7323.0395731995
   185 OT CG       0.98E-01    5.6     0.00013166     -7323.0395732327 -1.15E-02
   186 OT LS       0.98E-01    2.5                    -7323.0507454505
   187 OT CG       0.98E-01    5.6     0.00012946     -7323.0507455104 -1.12E-02
   188 OT LS       0.98E-01    2.5                    -7323.0615337930
   189 OT CG       0.98E-01    5.6     0.00012748     -7323.0615338111 -1.08E-02
   190 OT LS       0.98E-01    2.5                    -7323.0720199804
   191 OT CG       0.98E-01    5.6     0.00012535     -7323.0720200342 -1.05E-02
   192 OT LS       0.98E-01    2.5                    -7323.0821973405
   193 OT CG       0.98E-01    5.6     0.00012359     -7323.0821974854 -1.02E-02
   194 OT LS       0.98E-01    2.5                    -7323.0920604686
   195 OT CG       0.98E-01    5.7     0.00012163     -7323.0920605636 -9.86E-03
   196 OT LS       0.98E-01    2.5                    -7323.1016025773
   197 OT CG       0.98E-01    5.6     0.00011990     -7323.1016025852 -9.54E-03
   198 OT LS       0.98E-01    2.5                    -7323.1108748351
   199 OT CG       0.98E-01    5.7     0.00011808     -7323.1108748364 -9.27E-03
   200 OT LS       0.98E-01    2.4                    -7323.1198420210
   201 OT CG       0.98E-01    5.7     0.00011628     -7323.1198420956 -8.97E-03
   202 OT LS       0.98E-01    2.5                    -7323.1285596580
   203 OT CG       0.98E-01    5.7     0.00011447     -7323.1285597152 -8.72E-03
   204 OT LS       0.98E-01    2.4                    -7323.1370213667
   205 OT CG       0.98E-01    5.6     0.00011297     -7323.1370213886 -8.46E-03
   206 OT LS       0.98E-01    2.4                    -7323.1452527746
   207 OT CG       0.98E-01    5.6     0.00011132     -7323.1452527887 -8.23E-03
   208 OT LS       0.98E-01    2.5                    -7323.1532738614
   209 OT CG       0.98E-01    5.6     0.00010994     -7323.1532739576 -8.02E-03
   210 OT LS       0.98E-01    2.4                    -7323.1611042867
   211 OT CG       0.98E-01    5.6     0.00010867     -7323.1611042914 -7.83E-03
   212 OT LS       0.98E-01    2.5                    -7323.1687289737
   213 OT CG       0.98E-01    5.6     0.00010727     -7323.1687290606 -7.62E-03
   214 OT LS       0.98E-01    2.5                    -7323.1761905110
   215 OT CG       0.98E-01    5.7     0.00010600     -7323.1761906397 -7.46E-03
   216 OT LS       0.98E-01    2.4                    -7323.1834458784
   217 OT CG       0.98E-01    5.6     0.00010473     -7323.1834460089 -7.26E-03
   218 OT LS       0.98E-01    2.4                    -7323.1905211184
   219 OT CG       0.98E-01    5.6     0.00010325     -7323.1905211268 -7.08E-03
   220 OT LS       0.98E-01    2.4                    -7323.1974055568
   221 OT CG       0.98E-01    5.6     0.00010185     -7323.1974055654 -6.88E-03
   222 OT LS       0.98E-01    2.5                    -7323.2041242407
   223 OT CG       0.98E-01    5.6     0.00010056     -7323.2041242963 -6.72E-03
   224 OT LS       0.98E-01    2.5                    -7323.2106763065
   225 OT CG       0.98E-01    5.6     0.00009941     -7323.2106763071 -6.55E-03
   226 OT LS       0.98E-01    2.4                    -7323.2170587354
   227 OT CG       0.98E-01    5.6     0.00009809     -7323.2170588024 -6.38E-03
   228 OT LS       0.98E-01    2.5                    -7323.2232943219
   229 OT CG       0.98E-01    5.6     0.00009711     -7323.2232944012 -6.24E-03
   230 OT LS       0.98E-01    2.5                    -7323.2293913479
   231 OT CG       0.98E-01    5.6     0.00009584     -7323.2293913891 -6.10E-03
   232 OT LS       0.98E-01    2.5                    -7323.2353340141
   233 OT CG       0.98E-01    5.6     0.00009482     -7323.2353340161 -5.94E-03
   234 OT LS       0.98E-01    2.4                    -7323.2411513855
   235 OT CG       0.98E-01    5.6     0.00009360     -7323.2411513858 -5.82E-03
   236 OT LS       0.98E-01    2.5                    -7323.2468318064
   237 OT CG       0.98E-01    5.7     0.00009257     -7323.2468318284 -5.68E-03
   238 OT LS       0.98E-01    2.4                    -7323.2523729547
   239 OT CG       0.98E-01    5.6     0.00009149     -7323.2523729954 -5.54E-03
   240 OT LS       0.98E-01    2.4                    -7323.2577808986
   241 OT CG       0.98E-01    5.6     0.00009054     -7323.2577809028 -5.41E-03
   242 OT LS       0.98E-01    2.4                    -7323.2630779270
   243 OT CG       0.98E-01    5.6     0.00008942     -7323.2630779270 -5.30E-03
   244 OT LS       0.98E-01    2.4                    -7323.2682377016
   245 OT CG       0.98E-01    5.7     0.00008845     -7323.2682377098 -5.16E-03
   246 OT LS       0.98E-01    2.4                    -7323.2733013944
   247 OT CG       0.98E-01    5.6     0.00008758     -7323.2733014382 -5.06E-03
   248 OT LS       0.98E-01    2.4                    -7323.2782459188
   249 OT CG       0.98E-01    5.6     0.00008642     -7323.2782460020 -4.94E-03
   250 OT LS       0.99E-01    2.4                    -7323.2831090204
   251 OT CG       0.99E-01    5.6     0.00008555     -7323.2831095007 -4.86E-03
   252 OT LS       0.99E-01    2.4                    -7323.2878641690
   253 OT CG       0.99E-01    5.6     0.00008455     -7323.2878641931 -4.75E-03
   254 OT LS       0.99E-01    2.4                    -7323.2925041257
   255 OT CG       0.99E-01    5.6     0.00008375     -7323.2925041308 -4.64E-03
   256 OT LS       0.98E-01    2.4                    -7323.2970504475
   257 OT CG       0.98E-01    5.6     0.00008279     -7323.2970504581 -4.55E-03
   258 OT LS       0.98E-01    2.4                    -7323.3014909525
   259 OT CG       0.98E-01    5.6     0.00008200     -7323.3014909537 -4.44E-03
   260 OT LS       0.98E-01    2.5                    -7323.3058268189
   261 OT CG       0.98E-01    5.6     0.00008110     -7323.3058269092 -4.34E-03
   262 OT LS       0.98E-01    2.5                    -7323.3100789016
   263 OT CG       0.98E-01    5.6     0.00008042     -7323.3100789254 -4.25E-03
   264 OT LS       0.98E-01    2.5                    -7323.3142539154
   265 OT CG       0.98E-01    5.6     0.00007946     -7323.3142539231 -4.17E-03
   266 OT LS       0.98E-01    2.4                    -7323.3183488389
   267 OT CG       0.98E-01    5.7     0.00007881     -7323.3183489312 -4.10E-03
   268 OT LS       0.98E-01    2.4                    -7323.3223751539
   269 OT CG       0.98E-01    5.6     0.00007806     -7323.3223751559 -4.03E-03
   270 OT LS       0.99E-01    2.4                    -7323.3263358186
   271 OT CG       0.99E-01    5.6     0.00007729     -7323.3263358458 -3.96E-03
   272 OT LS       0.99E-01    2.5                    -7323.3302149532
   273 OT CG       0.99E-01    5.6     0.00007665     -7323.3302149572 -3.88E-03
   274 OT LS       0.98E-01    2.4                    -7323.3340190856
   275 OT CG       0.98E-01    5.6     0.00007601     -7323.3340191164 -3.80E-03
   276 OT LS       0.98E-01    2.4                    -7323.3377564433
   277 OT CG       0.98E-01    5.6     0.00007519     -7323.3377564473 -3.74E-03
   278 OT LS       0.98E-01    2.4                    -7323.3414193706
   279 OT CG       0.98E-01    5.6     0.00007455     -7323.3414193797 -3.66E-03
   280 OT LS       0.98E-01    2.4                    -7323.3450180698
   281 OT CG       0.98E-01    5.6     0.00007385     -7323.3450180709 -3.60E-03
   282 OT LS       0.98E-01    2.5                    -7323.3485537140
   283 OT CG       0.98E-01    5.6     0.00007326     -7323.3485537173 -3.54E-03
   284 OT LS       0.98E-01    2.5                    -7323.3520261819
   285 OT CG       0.98E-01    5.7     0.00007245     -7323.3520261945 -3.47E-03
   286 OT LS       0.99E-01    2.4                    -7323.3554378088
   287 OT CG       0.99E-01    5.6     0.00007183     -7323.3554378747 -3.41E-03
   288 OT LS       0.98E-01    2.4                    -7323.3587837818
   289 OT CG       0.98E-01    5.7     0.00007120     -7323.3587837988 -3.35E-03
   290 OT LS       0.98E-01    2.4                    -7323.3620592597
   291 OT CG       0.98E-01    5.6     0.00007052     -7323.3620593037 -3.28E-03
   292 OT LS       0.98E-01    2.4                    -7323.3652809556
   293 OT CG       0.98E-01    5.6     0.00006982     -7323.3652809760 -3.22E-03
   294 OT LS       0.99E-01    2.4                    -7323.3684451552
   295 OT CG       0.99E-01    5.6     0.00006928     -7323.3684451686 -3.16E-03
   296 OT LS       0.98E-01    2.4                    -7323.3715516707
   297 OT CG       0.98E-01    5.7     0.00006868     -7323.3715517003 -3.11E-03
   298 OT LS       0.98E-01    2.4                    -7323.3746060856
   299 OT CG       0.98E-01    5.6     0.00006805     -7323.3746060870 -3.05E-03
   300 OT LS       0.99E-01    2.4                    -7323.3776128473
   301 OT CG       0.99E-01    5.6     0.00006745     -7323.3776128679 -3.01E-03
   302 OT LS       0.98E-01    2.4                    -7323.3805602072
   303 OT CG       0.98E-01    5.6     0.00006688     -7323.3805602228 -2.95E-03
   304 OT LS       0.98E-01    2.4                    -7323.3834515624
   305 OT CG       0.98E-01    5.6     0.00006619     -7323.3834515792 -2.89E-03
   306 OT LS       0.98E-01    2.4                    -7323.3862920021
   307 OT CG       0.98E-01    5.6     0.00006558     -7323.3862920297 -2.84E-03
   308 OT LS       0.98E-01    2.4                    -7323.3890731246
   309 OT CG       0.98E-01    5.6     0.00006502     -7323.3890731459 -2.78E-03
   310 OT LS       0.98E-01    2.5                    -7323.3918106603
   311 OT CG       0.98E-01    5.6     0.00006442     -7323.3918106647 -2.74E-03
   312 OT LS       0.98E-01    2.5                    -7323.3945009304
   313 OT CG       0.98E-01    5.6     0.00006389     -7323.3945009344 -2.69E-03
   314 OT LS       0.98E-01    2.4                    -7323.3971471120
   315 OT CG       0.98E-01    5.6     0.00006345     -7323.3971471120 -2.65E-03
   316 OT LS       0.98E-01    2.4                    -7323.3997580594
   317 OT CG       0.98E-01    5.6     0.00006301     -7323.3997580600 -2.61E-03
   318 OT LS       0.98E-01    2.4                    -7323.4023321732
   319 OT CG       0.98E-01    5.6     0.00006254     -7323.4023321735 -2.57E-03
   320 OT LS       0.98E-01    2.4                    -7323.4048691557
   321 OT CG       0.98E-01    5.6     0.00006207     -7323.4048691563 -2.54E-03
   322 OT LS       0.98E-01    2.4                    -7323.4073675024
   323 OT CG       0.98E-01    5.6     0.00006153     -7323.4073675025 -2.50E-03
   324 OT LS       0.98E-01    2.4                    -7323.4098167120
   325 OT CG       0.98E-01    5.7     0.00006106     -7323.4098167272 -2.45E-03
   326 OT LS       0.98E-01    2.4                    -7323.4122277374
   327 OT CG       0.98E-01    5.6     0.00006041     -7323.4122277381 -2.41E-03
   328 OT LS       0.99E-01    2.4                    -7323.4146028945
   329 OT CG       0.99E-01    5.6     0.00005993     -7323.4146029933 -2.38E-03
   330 OT LS       0.99E-01    2.4                    -7323.4169367397
   331 OT CG       0.99E-01    5.6     0.00005957     -7323.4169367456 -2.33E-03
   332 OT LS       0.98E-01    2.4                    -7323.4192373748
   333 OT CG       0.98E-01    5.6     0.00005920     -7323.4192373864 -2.30E-03
   334 OT LS       0.99E-01    2.5                    -7323.4215137028
   335 OT CG       0.99E-01    5.6     0.00005875     -7323.4215137097 -2.28E-03
   336 OT LS       0.99E-01    2.4                    -7323.4237562351
   337 OT CG       0.99E-01    5.6     0.00005844     -7323.4237562356 -2.24E-03
   338 OT LS       0.98E-01    2.4                    -7323.4259667296
   339 OT CG       0.98E-01    5.6     0.00005800     -7323.4259667673 -2.21E-03
   340 OT LS       0.98E-01    2.5                    -7323.4281479544
   341 OT CG       0.98E-01    5.6     0.00005759     -7323.4281479603 -2.18E-03
   342 OT LS       0.98E-01    2.4                    -7323.4302973502
   343 OT CG       0.98E-01    5.6     0.00005715     -7323.4302973506 -2.15E-03
   344 OT LS       0.98E-01    2.5                    -7323.4324089464
   345 OT CG       0.98E-01    5.6     0.00005671     -7323.4324089563 -2.11E-03
   346 OT LS       0.98E-01    2.4                    -7323.4344954495
   347 OT CG       0.98E-01    5.6     0.00005630     -7323.4344954718 -2.09E-03
   348 OT LS       0.99E-01    2.5                    -7323.4365538167
   349 OT CG       0.99E-01    5.7     0.00005600     -7323.4365538183 -2.06E-03
   350 OT LS       0.99E-01    2.4                    -7323.4385892027
   351 OT CG       0.99E-01    5.6     0.00005565     -7323.4385892039 -2.04E-03
   352 OT LS       0.99E-01    2.5                    -7323.4406017084
   353 OT CG       0.99E-01    5.6     0.00005535     -7323.4406017121 -2.01E-03
   354 OT LS       0.99E-01    2.4                    -7323.4425954448
   355 OT CG       0.99E-01    5.6     0.00005506     -7323.4425954496 -1.99E-03
   356 OT LS       0.99E-01    2.4                    -7323.4445654477
   357 OT CG       0.99E-01    5.6     0.00005468     -7323.4445654533 -1.97E-03
   358 OT LS       0.99E-01    2.4                    -7323.4465059304
   359 OT CG       0.99E-01    5.6     0.00005427     -7323.4465059335 -1.94E-03
   360 OT LS       0.99E-01    2.5                    -7323.4484245118
   361 OT CG       0.99E-01    5.6     0.00005394     -7323.4484245395 -1.92E-03
   362 OT LS       0.99E-01    2.4                    -7323.4503128767
   363 OT CG       0.99E-01    5.6     0.00005355     -7323.4503129053 -1.89E-03
   364 OT LS       0.98E-01    2.4                    -7323.4521734012
   365 OT CG       0.98E-01    5.6     0.00005322     -7323.4521734015 -1.86E-03
   366 OT LS       0.98E-01    2.4                    -7323.4540094837
   367 OT CG       0.98E-01    5.6     0.00005288     -7323.4540094847 -1.84E-03
   368 OT LS       0.98E-01    2.4                    -7323.4558213130
   369 OT CG       0.98E-01    5.6     0.00005257     -7323.4558213134 -1.81E-03
   370 OT LS       0.98E-01    2.4                    -7323.4576085516
   371 OT CG       0.98E-01    5.7     0.00005228     -7323.4576085582 -1.79E-03
   372 OT LS       0.98E-01    2.4                    -7323.4593760280
   373 OT CG       0.98E-01    5.6     0.00005195     -7323.4593760282 -1.77E-03
   374 OT LS       0.98E-01    2.4                    -7323.4611244501
   375 OT CG       0.98E-01    5.6     0.00005158     -7323.4611244568 -1.75E-03
   376 OT LS       0.99E-01    2.4                    -7323.4628557826
   377 OT CG       0.99E-01    5.6     0.00005130     -7323.4628558180 -1.73E-03
   378 OT LS       0.99E-01    2.4                    -7323.4645668654
   379 OT CG       0.99E-01    5.7     0.00005093     -7323.4645668669 -1.71E-03
   380 OT LS       0.99E-01    2.4                    -7323.4662588091
   381 OT CG       0.99E-01    5.6     0.00005064     -7323.4662588229 -1.69E-03
   382 OT LS       0.99E-01    2.5                    -7323.4679266954
   383 OT CG       0.99E-01    5.6     0.00005025     -7323.4679267086 -1.67E-03
   384 OT LS       0.99E-01    2.5                    -7323.4695695630
   385 OT CG       0.99E-01    5.6     0.00004998     -7323.4695695635 -1.64E-03
   386 OT LS       0.99E-01    2.5                    -7323.4711906856
   387 OT CG       0.99E-01    5.7     0.00004967     -7323.4711906981 -1.62E-03
   388 OT LS       0.98E-01    2.5                    -7323.4727887135
   389 OT CG       0.98E-01    5.6     0.00004934     -7323.4727887194 -1.60E-03
   390 OT LS       0.98E-01    2.5                    -7323.4743638575
   391 OT CG       0.98E-01    5.6     0.00004903     -7323.4743638592 -1.58E-03
   392 OT LS       0.98E-01    2.5                    -7323.4759207745
   393 OT CG       0.98E-01    5.6     0.00004871     -7323.4759207765 -1.56E-03
   394 OT LS       0.98E-01    2.5                    -7323.4774551810
   395 OT CG       0.98E-01    5.6     0.00004829     -7323.4774551844 -1.53E-03
   396 OT LS       0.99E-01    2.4                    -7323.4789728875
   397 OT CG       0.99E-01    5.6     0.00004798     -7323.4789729435 -1.52E-03
   398 OT LS       0.98E-01    2.5                    -7323.4804661663
   399 OT CG       0.98E-01    5.6     0.00004766     -7323.4804661855 -1.49E-03
   400 OT LS       0.98E-01    2.5                    -7323.4819365307
   401 OT CG       0.98E-01    5.6     0.00004733     -7323.4819365364 -1.47E-03
   402 OT LS       0.99E-01    2.4                    -7323.4833922194
   403 OT CG       0.99E-01    5.6     0.00004696     -7323.4833922439 -1.46E-03
   404 OT LS       0.99E-01    2.4                    -7323.4848279786
   405 OT CG       0.99E-01    5.6     0.00004669     -7323.4848279824 -1.44E-03
   406 OT LS       0.98E-01    2.4                    -7323.4862412450
   407 OT CG       0.98E-01    5.6     0.00004639     -7323.4862412689 -1.41E-03
   408 OT LS       0.98E-01    2.5                    -7323.4876368125
   409 OT CG       0.98E-01    5.6     0.00004606     -7323.4876368127 -1.40E-03
   410 OT LS       0.99E-01    2.4                    -7323.4890157389
   411 OT CG       0.99E-01    5.6     0.00004572     -7323.4890157445 -1.38E-03
   412 OT LS       0.98E-01    2.4                    -7323.4903719444
   413 OT CG       0.98E-01    5.6     0.00004538     -7323.4903719487 -1.36E-03
   414 OT LS       0.98E-01    2.5                    -7323.4917070423
   415 OT CG       0.98E-01    5.7     0.00004508     -7323.4917070435 -1.34E-03
   416 OT LS       0.98E-01    2.5                    -7323.4930221040
   417 OT CG       0.98E-01    5.6     0.00004472     -7323.4930221072 -1.32E-03
   418 OT LS       0.98E-01    2.4                    -7323.4943157811
   419 OT CG       0.98E-01    5.6     0.00004437     -7323.4943157815 -1.29E-03
   420 OT LS       0.98E-01    2.4                    -7323.4955915446
   421 OT CG       0.98E-01    5.6     0.00004396     -7323.4955915496 -1.28E-03
   422 OT LS       0.99E-01    2.5                    -7323.4968485342
   423 OT CG       0.99E-01    5.6     0.00004371     -7323.4968485505 -1.26E-03
   424 OT LS       0.98E-01    2.5                    -7323.4980848515
   425 OT CG       0.98E-01    5.6     0.00004336     -7323.4980848856 -1.24E-03
   426 OT LS       0.98E-01    2.5                    -7323.4993032146
   427 OT CG       0.98E-01    5.6     0.00004306     -7323.4993032183 -1.22E-03
   428 OT LS       0.99E-01    2.4                    -7323.5005073650
   429 OT CG       0.99E-01    5.6     0.00004270     -7323.5005073683 -1.20E-03
   430 OT LS       0.98E-01    2.4                    -7323.5016904341
   431 OT CG       0.98E-01    5.6     0.00004241     -7323.5016904346 -1.18E-03
   432 OT LS       0.98E-01    2.5                    -7323.5028559627
   433 OT CG       0.98E-01    5.6     0.00004212     -7323.5028559642 -1.17E-03
   434 OT LS       0.98E-01    4.6                    -7323.5040037436
   435 OT CG       0.98E-01    5.6     0.00004177     -7323.5040037467 -1.15E-03
   436 OT LS       0.98E-01    2.4                    -7323.5051343546
   437 OT CG       0.98E-01    5.7     0.00004146     -7323.5051343574 -1.13E-03
   438 OT LS       0.98E-01    2.4                    -7323.5062490219
   439 OT CG       0.98E-01    5.6     0.00004112     -7323.5062490224 -1.11E-03
   440 OT LS       0.99E-01    2.4                    -7323.5073467914
   441 OT CG       0.99E-01    5.6     0.00004085     -7323.5073467933 -1.10E-03
   442 OT LS       0.99E-01    2.5                    -7323.5084302381
   443 OT CG       0.99E-01    5.6     0.00004056     -7323.5084302380 -1.08E-03
   444 OT LS       0.98E-01    2.5                    -7323.5094970555
   445 OT CG       0.98E-01    5.6     0.00004026     -7323.5094970573 -1.07E-03
   446 OT LS       0.99E-01    2.4                    -7323.5105499447
   447 OT CG       0.99E-01    5.6     0.00003999     -7323.5105499470 -1.05E-03
   448 OT LS       0.99E-01    2.4                    -7323.5115875983
   449 OT CG       0.99E-01    5.6     0.00003973     -7323.5115875989 -1.04E-03
   450 OT LS       0.98E-01    2.4                    -7323.5126100420
   451 OT CG       0.98E-01    5.6     0.00003945     -7323.5126100447 -1.02E-03
   452 OT LS       0.98E-01    2.5                    -7323.5136180723
   453 OT CG       0.98E-01    5.6     0.00003917     -7323.5136180725 -1.01E-03
   454 OT LS       0.98E-01    2.4                    -7323.5146129196
   455 OT CG       0.98E-01    5.6     0.00003888     -7323.5146129206 -9.95E-04
   456 OT LS       0.99E-01    2.4                    -7323.5155942456
   457 OT CG       0.99E-01    5.6     0.00003863     -7323.5155942483 -9.81E-04
   458 OT LS       0.98E-01    2.4                    -7323.5165622252
   459 OT CG       0.98E-01    5.7     0.00003837     -7323.5165622261 -9.68E-04
   460 OT LS       0.99E-01    2.5                    -7323.5175193493
   461 OT CG       0.99E-01    5.6     0.00003810     -7323.5175193541 -9.57E-04
   462 OT LS       0.99E-01    2.5                    -7323.5184641608
   463 OT CG       0.99E-01    5.6     0.00003789     -7323.5184641617 -9.45E-04
   464 OT LS       0.99E-01    2.4                    -7323.5193961102
   465 OT CG       0.99E-01    5.6     0.00003765     -7323.5193961161 -9.32E-04
   466 OT LS       0.99E-01    2.4                    -7323.5203169492
   467 OT CG       0.99E-01    5.6     0.00003745     -7323.5203169494 -9.21E-04
   468 OT LS       0.98E-01    2.5                    -7323.5212259159
   469 OT CG       0.98E-01    5.6     0.00003726     -7323.5212259195 -9.09E-04
   470 OT LS       0.98E-01    2.4                    -7323.5221233387
   471 OT CG       0.98E-01    5.6     0.00003697     -7323.5221233470 -8.97E-04
   472 OT LS       0.98E-01    2.5                    -7323.5230088733
   473 OT CG       0.98E-01    5.7     0.00003673     -7323.5230088801 -8.86E-04
   474 OT LS       0.99E-01    2.5                    -7323.5238853659
   475 OT CG       0.99E-01    5.7     0.00003651     -7323.5238853720 -8.76E-04
   476 OT LS       0.98E-01    2.4                    -7323.5247502806
   477 OT CG       0.98E-01    5.5     0.00003627     -7323.5247502829 -8.65E-04
   478 OT LS       0.99E-01    2.4                    -7323.5256078569
   479 OT CG       0.99E-01    5.4     0.00003606     -7323.5256078772 -8.58E-04
   480 OT LS       0.99E-01    2.4                    -7323.5264553204
   481 OT CG       0.99E-01    5.4     0.00003585     -7323.5264553204 -8.47E-04
   482 OT LS       0.99E-01    2.4                    -7323.5272922816
   483 OT CG       0.99E-01    5.4     0.00003568     -7323.5272922827 -8.37E-04
   484 OT LS       0.99E-01    2.4                    -7323.5281193993
   485 OT CG       0.99E-01    5.4     0.00003546     -7323.5281194042 -8.27E-04
   486 OT LS       0.98E-01    2.4                    -7323.5289345319
   487 OT CG       0.98E-01    5.4     0.00003525     -7323.5289345348 -8.15E-04
   488 OT LS       0.98E-01    2.4                    -7323.5297388559
   489 OT CG       0.98E-01    5.4     0.00003500     -7323.5297388578 -8.04E-04
   490 OT LS       0.98E-01    2.4                    -7323.5305320310
   491 OT CG       0.98E-01    5.4     0.00003474     -7323.5305320311 -7.93E-04
   492 OT LS       0.98E-01    2.4                    -7323.5313133712
   493 OT CG       0.98E-01    5.4     0.00003448     -7323.5313133712 -7.81E-04
   494 OT LS       0.98E-01    2.4                    -7323.5320837175
   495 OT CG       0.98E-01    5.4     0.00003422     -7323.5320837179 -7.70E-04
   496 OT LS       0.99E-01    2.4                    -7323.5328442497
   497 OT CG       0.99E-01    5.4     0.00003398     -7323.5328442536 -7.61E-04
   498 OT LS       0.99E-01    2.4                    -7323.5335946502
   499 OT CG       0.99E-01    5.4     0.00003376     -7323.5335946505 -7.50E-04
   500 OT LS       0.99E-01    2.4                    -7323.5343374590

  Leaving inner SCF loop after reaching   500 steps.


  Electronic density on regular grids:      -3259.9999970993        0.0000029007
  Core density on regular grids:             3259.9999997987       -0.0000002013
  Total charge density on r-space grids:        0.0000026995
  Total charge density g-space grids:           0.0000026995

  Overlap energy of the core charge distribution:               0.00001621812652
  Self energy of the core charge distribution:             -18834.38993790193854
  Core Hamiltonian energy:                                   5345.19036338492515
  Hartree energy:                                            7879.28578456563537
  Exchange-correlation energy:                              -1711.49695136991477
  Dispersion energy:                                           -2.12361235582971

  Total energy:                                             -7323.53433745899565

  outer SCF iter =    1 RMS gradient =   0.34E-04 energy =      -7323.5343374590

  ----------------------------------- OT ---------------------------------------
  Minimizer      : CG                  : conjugate gradient
  Preconditioner : FULL_ALL            : diagonalization, state selective
  Precond_solver : DEFAULT
  Line search    : 2PNT                : 2 energies, one gradient
  stepsize       :    0.15000000                  energy_gap     :    0.00100000
  eps_taylor     :   0.10000E-15                  max_taylor     :             4
  ----------------------------------- OT ---------------------------------------

  Step     Update method      Time    Convergence         Total energy    Change
  ------------------------------------------------------------------------------
     1 OT CG       0.15E+00   25.0     0.00023111     -7323.5343374642 -7.43E-04
     2 OT LS       0.25E+00    2.2                    -7323.6081603084
     3 OT CG       0.25E+00    5.3     0.00000981     -7323.6220743597 -8.77E-02
     4 OT LS       0.78E-01    2.2                    -7323.6218828852
     5 OT CG       0.78E-01    5.3     0.00000308     -7323.6221234412 -4.91E-05
     6 OT LS       0.65E-01    2.2                    -7323.6221273526
     7 OT CG       0.65E-01    5.3     0.00000112     -7323.6221275086 -4.07E-06
     8 OT LS       0.11E+00    2.2                    -7323.6221282808
     9 OT CG       0.11E+00    5.3     0.00000040     -7323.6221284608 -9.52E-07

  *** SCF run converged in     9 steps ***


  Electronic density on regular grids:      -3259.9999970995        0.0000029005
  Core density on regular grids:             3259.9999997987       -0.0000002013
  Total charge density on r-space grids:        0.0000026992
  Total charge density g-space grids:           0.0000026992

  Overlap energy of the core charge distribution:               0.00001621812652
  Self energy of the core charge distribution:             -18834.38993790193854
  Core Hamiltonian energy:                                   5344.94346208654224
  Hartree energy:                                            7879.42591989753237
  Exchange-correlation energy:                              -1711.47797640522094
  Dispersion energy:                                           -2.12361235582971

  Total energy:                                             -7323.62212846078637

  outer SCF iter =    2 RMS gradient =   0.40E-06 energy =      -7323.6221284608
  outer SCF loop converged in   2 iterations or  509 steps


 ENERGY| Total FORCE_EVAL ( QS ) energy [a.u.]:            -7323.622128559652992

 ATOMIC FORCES in [a.u.]

 # Atom   Kind   Element          X              Y              Z
      1      1      Ti          0.00000000     0.00000000     0.00000000
      2      2      Si          0.00000000     0.00000000     0.00000000
      3      2      Si          0.00000000     0.00000000     0.00000000
      4      2      Si          0.00000000     0.00000000     0.00000000
      5      2      Si          0.00000000     0.00000000     0.00000000
      6      2      Si          0.00000000     0.00000000     0.00000000
      7      2      Si          0.00000000     0.00000000     0.00000000
      8      2      Si          0.00000000     0.00000000     0.00000000
      9      2      Si          0.00000000     0.00000000     0.00000000
     10      2      Si          0.00000000     0.00000000     0.00000000
     11      2      Si          0.00000000     0.00000000     0.00000000
     12      2      Si          0.00000000     0.00000000     0.00000000
     13      2      Si          0.00000000     0.00000000     0.00000000
     14      2      Si          0.00000000     0.00000000     0.00000000
     15      2      Si          0.00000000     0.00000000     0.00000000
     16      2      Si          0.00000000     0.00000000     0.00000000
     17      2      Si          0.00000000     0.00000000     0.00000000
     18      2      Si          0.00000000     0.00000000     0.00000000
     19      2      Si          0.00000000     0.00000000     0.00000000
     20      2      Si          0.00000000     0.00000000     0.00000000
     21      2      Si          0.00000000     0.00000000     0.00000000
     22      2      Si          0.00000000     0.00000000     0.00000000
     23      2      Si          0.00000000     0.00000000     0.00000000
     24      2      Si          0.00000000     0.00000000     0.00000000
     25      2      Si          0.00000000     0.00000000     0.00000000
     26      2      Si          0.00000000     0.00000000     0.00000000
     27      2      Si          0.00000000     0.00000000     0.00000000
     28      2      Si          0.00000000     0.00000000     0.00000000
     29      2      Si          0.00000000     0.00000000     0.00000000
     30      2      Si          0.00000000     0.00000000     0.00000000
     31      2      Si          0.00000000     0.00000000     0.00000000
     32      2      Si          0.00000000     0.00000000     0.00000000
     33      2      Si          0.00000000     0.00000000     0.00000000
     34      2      Si          0.00000000     0.00000000     0.00000000
     35      2      Si          0.00000000     0.00000000     0.00000000
     36      2      Si          0.00000000     0.00000000     0.00000000
     37      2      Si          0.00000000     0.00000000     0.00000000
     38      2      Si          0.00000000     0.00000000     0.00000000
     39      2      Si          0.00000000     0.00000000     0.00000000
     40      2      Si          0.00000000     0.00000000     0.00000000
     41      2      Si          0.00000000     0.00000000     0.00000000
     42      2      Si          0.00000000     0.00000000     0.00000000
     43      2      Si          0.00000000     0.00000000     0.00000000
     44      2      Si          0.00000000     0.00000000     0.00000000
     45      2      Si          0.00000000     0.00000000     0.00000000
     46      2      Si          0.00000000     0.00000000     0.00000000
     47      2      Si          0.00000000     0.00000000     0.00000000
     48      2      Si          0.00000000     0.00000000     0.00000000
     49      2      Si          0.00000000     0.00000000     0.00000000
     50      2      Si          0.00000000     0.00000000     0.00000000
     51      2      Si          0.00000000     0.00000000     0.00000000
     52      2      Si          0.00000000     0.00000000     0.00000000
     53      2      Si          0.00000000     0.00000000     0.00000000
     54      2      Si          0.00000000     0.00000000     0.00000000
     55      2      Si          0.00000000     0.00000000     0.00000000
     56      2      Si          0.00000000     0.00000000     0.00000000
     57      2      Si          0.00000000     0.00000000     0.00000000
     58      2      Si          0.00000000     0.00000000     0.00000000
     59      2      Si          0.00000000     0.00000000     0.00000000
     60      2      Si          0.00000000     0.00000000     0.00000000
     61      2      Si          0.00000000     0.00000000     0.00000000
     62      2      Si          0.00000000     0.00000000     0.00000000
     63      2      Si          0.00000000     0.00000000     0.00000000
     64      2      Si          0.00000000     0.00000000     0.00000000
     65      2      Si          0.00000000     0.00000000     0.00000000
     66      2      Si          0.00000000     0.00000000     0.00000000
     67      2      Si          0.00000000     0.00000000     0.00000000
     68      2      Si          0.00000000     0.00000000     0.00000000
     69      2      Si          0.00000000     0.00000000     0.00000000
     70      2      Si          0.00000000     0.00000000     0.00000000
     71      2      Si          0.00000000     0.00000000     0.00000000
     72      2      Si          0.00000000     0.00000000     0.00000000
     73      2      Si          0.00000000     0.00000000     0.00000000
     74      2      Si          0.00000000     0.00000000     0.00000000
     75      2      Si          0.00000000     0.00000000     0.00000000
     76      2      Si          0.00000000     0.00000000     0.00000000
     77      2      Si          0.00000000     0.00000000     0.00000000
     78      2      Si          0.00000000     0.00000000     0.00000000
     79      2      Si          0.00000000     0.00000000     0.00000000
     80      2      Si          0.00000000     0.00000000     0.00000000
     81      2      Si          0.00000000     0.00000000     0.00000000
     82      2      Si          0.00000000     0.00000000     0.00000000
     83      2      Si          0.00000000     0.00000000     0.00000000
     84      2      Si          0.00000000     0.00000000     0.00000000
     85      2      Si          0.00000000     0.00000000     0.00000000
     86      2      Si          0.00000000     0.00000000     0.00000000
     87      2      Si          0.00000000     0.00000000     0.00000000
     88      2      Si          0.00000000     0.00000000     0.00000000
     89      2      Si          0.00000000     0.00000000     0.00000000
     90      2      Si          0.00000000     0.00000000     0.00000000
     91      2      Si          0.00000000     0.00000000     0.00000000
     92      2      Si          0.00000000     0.00000000     0.00000000
     93      2      Si          0.00000000     0.00000000     0.00000000
     94      2      Si          0.00000000     0.00000000     0.00000000
     95      2      Si          0.00000000     0.00000000     0.00000000
     96      2      Si          0.00000000     0.00000000     0.00000000
     97      2      Si          0.00000000     0.00000000     0.00000000
     98      2      Si          0.00000000     0.00000000     0.00000000
     99      2      Si          0.00000000     0.00000000     0.00000000
    100      2      Si          0.00000000     0.00000000     0.00000000
    101      2      Si          0.00000000     0.00000000     0.00000000
    102      2      Si          0.00000000     0.00000000     0.00000000
    103      2      Si          0.00000000     0.00000000     0.00000000
    104      2      Si          0.00000000     0.00000000     0.00000000
    105      2      Si          0.00000000     0.00000000     0.00000000
    106      2      Si          0.00000000     0.00000000     0.00000000
    107      2      Si          0.00000000     0.00000000     0.00000000
    108      2      Si          0.00000000     0.00000000     0.00000000
    109      2      Si          0.00000000     0.00000000     0.00000000
    110      2      Si          0.00000000     0.00000000     0.00000000
    111      2      Si          0.00000000     0.00000000     0.00000000
    112      2      Si          0.00000000     0.00000000     0.00000000
    113      2      Si          0.00000000     0.00000000     0.00000000
    114      2      Si          0.00000000     0.00000000     0.00000000
    115      2      Si          0.00000000     0.00000000     0.00000000
    116      2      Si          0.00000000     0.00000000     0.00000000
    117      2      Si          0.00000000     0.00000000     0.00000000
    118      2      Si          0.00000000     0.00000000     0.00000000
    119      2      Si          0.00000000     0.00000000     0.00000000
    120      2      Si          0.00000000     0.00000000     0.00000000
    121      2      Si          0.00000000     0.00000000     0.00000000
    122      2      Si          0.00000000     0.00000000     0.00000000
    123      2      Si          0.00000000     0.00000000     0.00000000
    124      2      Si          0.00000000     0.00000000     0.00000000
    125      2      Si          0.00000000     0.00000000     0.00000000
    126      2      Si          0.00000000     0.00000000     0.00000000
    127      2      Si          0.00000000     0.00000000     0.00000000
    128      2      Si          0.00000000     0.00000000     0.00000000
    129      2      Si          0.00000000     0.00000000     0.00000000
    130      2      Si          0.00000000     0.00000000     0.00000000
    131      2      Si          0.00000000     0.00000000     0.00000000
    132      2      Si          0.00000000     0.00000000     0.00000000
    133      2      Si          0.00000000     0.00000000     0.00000000
    134      2      Si          0.00000000     0.00000000     0.00000000
    135      2      Si          0.00000000     0.00000000     0.00000000
    136      2      Si          0.00000000     0.00000000     0.00000000
    137      2      Si          0.00000000     0.00000000     0.00000000
    138      2      Si          0.00000000     0.00000000     0.00000000
    139      2      Si          0.00000000     0.00000000     0.00000000
    140      2      Si          0.00000000     0.00000000     0.00000000
    141      2      Si          0.00000000     0.00000000     0.00000000
    142      2      Si          0.00000000     0.00000000     0.00000000
    143      2      Si          0.00000000     0.00000000     0.00000000
    144      2      Si          0.00000000     0.00000000     0.00000000
    145      2      Si          0.00000000     0.00000000     0.00000000
    146      2      Si          0.00000000     0.00000000     0.00000000
    147      2      Si          0.00000000     0.00000000     0.00000000
    148      2      Si          0.00000000     0.00000000     0.00000000
    149      2      Si          0.00000000     0.00000000     0.00000000
    150      2      Si          0.00000000     0.00000000     0.00000000
    151      2      Si          0.00000000     0.00000000     0.00000000
    152      2      Si          0.00000000     0.00000000     0.00000000
    153      2      Si          0.00000000     0.00000000     0.00000000
    154      2      Si          0.00000000     0.00000000     0.00000000
    155      2      Si          0.00000000     0.00000000     0.00000000
    156      2      Si          0.00000000     0.00000000     0.00000000
    157      2      Si          0.00000000     0.00000000     0.00000000
    158      2      Si          0.00000000     0.00000000     0.00000000
    159      2      Si          0.00000000     0.00000000     0.00000000
    160      2      Si          0.00000000     0.00000000     0.00000000
    161      2      Si          0.00000000     0.00000000     0.00000000
    162      2      Si          0.00000000     0.00000000     0.00000000
    163      2      Si          0.00000000     0.00000000     0.00000000
    164      2      Si          0.00000000     0.00000000     0.00000000
    165      2      Si          0.00000000     0.00000000     0.00000000
    166      2      Si          0.00000000     0.00000000     0.00000000
    167      2      Si          0.00000000     0.00000000     0.00000000
    168      2      Si          0.00000000     0.00000000     0.00000000
    169      2      Si          0.00000000     0.00000000     0.00000000
    170      2      Si          0.00000000     0.00000000     0.00000000
    171      2      Si          0.00000000     0.00000000     0.00000000
    172      2      Si          0.00000000     0.00000000     0.00000000
    173      2      Si          0.00000000     0.00000000     0.00000000
    174      2      Si          0.00000000     0.00000000     0.00000000
    175      2      Si          0.00000000     0.00000000     0.00000000
    176      2      Si          0.00000000     0.00000000     0.00000000
    177      2      Si          0.00000000     0.00000000     0.00000000
    178      2      Si          0.00000000     0.00000000     0.00000000
    179      2      Si          0.00000000     0.00000000     0.00000000
    180      2      Si          0.00000000     0.00000000     0.00000000
    181      2      Si          0.00000000     0.00000000     0.00000000
    182      2      Si          0.00000000     0.00000000     0.00000000
    183      2      Si          0.00000000     0.00000000     0.00000000
    184      2      Si          0.00000000     0.00000000     0.00000000
    185      2      Si          0.00000000     0.00000000     0.00000000
    186      2      Si          0.00000000     0.00000000     0.00000000
    187      2      Si          0.00000000     0.00000000     0.00000000
    188      2      Si          0.00000000     0.00000000     0.00000000
    189      2      Si          0.00000000     0.00000000     0.00000000
    190      2      Si          0.00000000     0.00000000     0.00000000
    191      2      Si          0.00000000     0.00000000     0.00000000
    192      3      O           0.00000000     0.00000000     0.00000000
    193      3      O           0.00000000     0.00000000     0.00000000
    194      3      O           0.00000000     0.00000000     0.00000000
    195      3      O           0.00000000     0.00000000     0.00000000
    196      3      O           0.00000000     0.00000000     0.00000000
    197      3      O           0.00000000     0.00000000     0.00000000
    198      3      O           0.00000000     0.00000000     0.00000000
    199      3      O           0.00000000     0.00000000     0.00000000
    200      3      O           0.00000000     0.00000000     0.00000000
    201      3      O           0.00000000     0.00000000     0.00000000
    202      3      O           0.00000000     0.00000000     0.00000000
    203      3      O           0.00000000     0.00000000     0.00000000
    204      3      O           0.00000000     0.00000000     0.00000000
    205      3      O           0.00000000     0.00000000     0.00000000
    206      3      O           0.00000000     0.00000000     0.00000000
    207      3      O           0.00000000     0.00000000     0.00000000
    208      3      O           0.00000000     0.00000000     0.00000000
    209      3      O           0.00000000     0.00000000     0.00000000
    210      3      O           0.00000000     0.00000000     0.00000000
    211      3      O           0.00000000     0.00000000     0.00000000
    212      3      O           0.00000000     0.00000000     0.00000000
    213      3      O           0.00000000     0.00000000     0.00000000
    214      3      O           0.00000000     0.00000000     0.00000000
    215      3      O           0.00000000     0.00000000     0.00000000
    216      3      O           0.00000000     0.00000000     0.00000000
    217      3      O           0.00000000     0.00000000     0.00000000
    218      3      O           0.00000000     0.00000000     0.00000000
    219      3      O           0.00000000     0.00000000     0.00000000
    220      3      O           0.00000000     0.00000000     0.00000000
    221      3      O           0.00000000     0.00000000     0.00000000
    222      3      O           0.00000000     0.00000000     0.00000000
    223      3      O           0.00000000     0.00000000     0.00000000
    224      3      O           0.00000000     0.00000000     0.00000000
    225      3      O           0.00000000     0.00000000     0.00000000
    226      3      O           0.00000000     0.00000000     0.00000000
    227      3      O           0.00000000     0.00000000     0.00000000
    228      3      O           0.00000000     0.00000000     0.00000000
    229      3      O           0.00000000     0.00000000     0.00000000
    230      3      O           0.00000000     0.00000000     0.00000000
    231      3      O           0.00000000     0.00000000     0.00000000
    232      3      O           0.00000000     0.00000000     0.00000000
    233      3      O           0.00000000     0.00000000     0.00000000
    234      3      O           0.00000000     0.00000000     0.00000000
    235      3      O           0.00000000     0.00000000     0.00000000
    236      3      O           0.00000000     0.00000000     0.00000000
    237      3      O           0.00000000     0.00000000     0.00000000
    238      3      O           0.00000000     0.00000000     0.00000000
    239      3      O           0.00000000     0.00000000     0.00000000
    240      3      O           0.00000000     0.00000000     0.00000000
    241      3      O           0.00000000     0.00000000     0.00000000
    242      3      O           0.00000000     0.00000000     0.00000000
    243      3      O           0.00000000     0.00000000     0.00000000
    244      3      O           0.00000000     0.00000000     0.00000000
    245      3      O           0.00000000     0.00000000     0.00000000
    246      3      O           0.00000000     0.00000000     0.00000000
    247      3      O           0.00000000     0.00000000     0.00000000
    248      3      O           0.00000000     0.00000000     0.00000000
    249      3      O           0.00000000     0.00000000     0.00000000
    250      3      O           0.00000000     0.00000000     0.00000000
    251      3      O           0.00000000     0.00000000     0.00000000
    252      3      O           0.00000000     0.00000000     0.00000000
    253      3      O           0.00000000     0.00000000     0.00000000
    254      3      O           0.00000000     0.00000000     0.00000000
    255      3      O           0.00000000     0.00000000     0.00000000
    256      3      O           0.00000000     0.00000000     0.00000000
    257      3      O           0.00000000     0.00000000     0.00000000
    258      3      O           0.00000000     0.00000000     0.00000000
    259      3      O           0.00000000     0.00000000     0.00000000
    260      3      O           0.00000000     0.00000000     0.00000000
    261      3      O           0.00000000     0.00000000     0.00000000
    262      3      O           0.00000000     0.00000000     0.00000000
    263      3      O           0.00000000     0.00000000     0.00000000
    264      3      O           0.00000000     0.00000000     0.00000000
    265      3      O           0.00000000     0.00000000     0.00000000
    266      3      O           0.00000000     0.00000000     0.00000000
    267      3      O           0.00000000     0.00000000     0.00000000
    268      3      O           0.00000000     0.00000000     0.00000000
    269      3      O           0.00000000     0.00000000     0.00000000
    270      3      O           0.00000000     0.00000000     0.00000000
    271      3      O           0.00000000     0.00000000     0.00000000
    272      3      O           0.00000000     0.00000000     0.00000000
    273      3      O           0.00000000     0.00000000     0.00000000
    274      3      O           0.00000000     0.00000000     0.00000000
    275      3      O           0.00000000     0.00000000     0.00000000
    276      3      O           0.00000000     0.00000000     0.00000000
    277      3      O           0.00000000     0.00000000     0.00000000
    278      3      O           0.00000000     0.00000000     0.00000000
    279      3      O           0.00000000     0.00000000     0.00000000
    280      3      O           0.00000000     0.00000000     0.00000000
    281      3      O           0.00000000     0.00000000     0.00000000
    282      3      O           0.00000000     0.00000000     0.00000000
    283      3      O           0.00000000     0.00000000     0.00000000
    284      3      O           0.00000000     0.00000000     0.00000000
    285      3      O           0.00000000     0.00000000     0.00000000
    286      3      O           0.00000000     0.00000000     0.00000000
    287      3      O           0.00000000     0.00000000     0.00000000
    288      3      O           0.00000000     0.00000000     0.00000000
    289      3      O           0.00000000     0.00000000     0.00000000
    290      3      O           0.00000000     0.00000000     0.00000000
    291      3      O           0.00000000     0.00000000     0.00000000
    292      3      O           0.00000000     0.00000000     0.00000000
    293      3      O           0.00000000     0.00000000     0.00000000
    294      3      O           0.00000000     0.00000000     0.00000000
    295      3      O           0.00000000     0.00000000     0.00000000
    296      3      O           0.00000000     0.00000000     0.00000000
    297      3      O           0.00000000     0.00000000     0.00000000
    298      3      O           0.00000000     0.00000000     0.00000000
    299      3      O           0.00000000     0.00000000     0.00000000
    300      3      O           0.00000000     0.00000000     0.00000000
    301      3      O           0.00000000     0.00000000     0.00000000
    302      3      O           0.00000000     0.00000000     0.00000000
    303      3      O           0.00000000     0.00000000     0.00000000
    304      3      O           0.00000000     0.00000000     0.00000000
    305      3      O           0.00000000     0.00000000     0.00000000
    306      3      O           0.00000000     0.00000000     0.00000000
    307      3      O           0.00000000     0.00000000     0.00000000
    308      3      O           0.00000000     0.00000000     0.00000000
    309      3      O           0.00000000     0.00000000     0.00000000
    310      3      O           0.00000000     0.00000000     0.00000000
    311      3      O           0.00000000     0.00000000     0.00000000
    312      3      O           0.00000000     0.00000000     0.00000000
    313      3      O           0.00000000     0.00000000     0.00000000
    314      3      O           0.00000000     0.00000000     0.00000000
    315      3      O           0.00000000     0.00000000     0.00000000
    316      3      O           0.00000000     0.00000000     0.00000000
    317      3      O           0.00000000     0.00000000     0.00000000
    318      3      O           0.00000000     0.00000000     0.00000000
    319      3      O           0.00000000     0.00000000     0.00000000
    320      3      O           0.00000000     0.00000000     0.00000000
    321      3      O           0.00000000     0.00000000     0.00000000
    322      3      O           0.00000000     0.00000000     0.00000000
    323      3      O           0.00000000     0.00000000     0.00000000
    324      3      O           0.00000000     0.00000000     0.00000000
    325      3      O           0.00000000     0.00000000     0.00000000
    326      3      O           0.00000000     0.00000000     0.00000000
    327      3      O           0.00000000     0.00000000     0.00000000
    328      3      O           0.00000000     0.00000000     0.00000000
    329      3      O           0.00000000     0.00000000     0.00000000
    330      3      O           0.00000000     0.00000000     0.00000000
    331      3      O           0.00000000     0.00000000     0.00000000
    332      3      O           0.00000000     0.00000000     0.00000000
    333      3      O           0.00000000     0.00000000     0.00000000
    334      3      O           0.00000000     0.00000000     0.00000000
    335      3      O           0.00000000     0.00000000     0.00000000
    336      3      O           0.00000000     0.00000000     0.00000000
    337      3      O           0.00000000     0.00000000     0.00000000
    338      3      O           0.00000000     0.00000000     0.00000000
    339      3      O           0.00000000     0.00000000     0.00000000
    340      3      O           0.00000000     0.00000000     0.00000000
    341      3      O           0.00000000     0.00000000     0.00000000
    342      3      O           0.00000000     0.00000000     0.00000000
    343      3      O           0.00000000     0.00000000     0.00000000
    344      3      O           0.00000000     0.00000000     0.00000000
    345      3      O           0.00000000     0.00000000     0.00000000
    346      3      O           0.00000000     0.00000000     0.00000000
    347      3      O           0.00000000     0.00000000     0.00000000
    348      3      O           0.00000000     0.00000000     0.00000000
    349      3      O           0.00000000     0.00000000     0.00000000
    350      3      O           0.00000000     0.00000000     0.00000000
    351      3      O           0.00000000     0.00000000     0.00000000
    352      3      O           0.00000000     0.00000000     0.00000000
    353      3      O           0.00000000     0.00000000     0.00000000
    354      3      O           0.00000000     0.00000000     0.00000000
    355      3      O           0.00000000     0.00000000     0.00000000
    356      3      O           0.00000000     0.00000000     0.00000000
    357      3      O           0.00000000     0.00000000     0.00000000
    358      3      O           0.00000000     0.00000000     0.00000000
    359      3      O           0.00000000     0.00000000     0.00000000
    360      3      O           0.00000000     0.00000000     0.00000000
    361      3      O           0.00000000     0.00000000     0.00000000
    362      3      O           0.00000000     0.00000000     0.00000000
    363      3      O           0.00000000     0.00000000     0.00000000
    364      3      O           0.00000000     0.00000000     0.00000000
    365      3      O           0.00000000     0.00000000     0.00000000
    366      3      O           0.00000000     0.00000000     0.00000000
    367      3      O           0.00000000     0.00000000     0.00000000
    368      3      O           0.00000000     0.00000000     0.00000000
    369      3      O           0.00000000     0.00000000     0.00000000
[...]
 flops  2023 x   256 x   670        9693371842560       0.0%    100.0%      0.0%
 flops  2020 x   256 x   160        9996219187200       0.0%    100.0%      0.0%
 flops  2020 x   286 x   670       10813254566400       0.0%    100.0%      0.0%
 flops  2020 x   288 x   683       11100148346880       0.0%    100.0%      0.0%
 flops  2023 x   256 x   128       12013278068736       0.0%    100.0%      0.0%
 flops  2020 x   286 x   128       13401181347840       0.0%    100.0%      0.0%
 flops  2020 x   256 x   683       14800197795840       0.0%    100.0%      0.0%
 flops  2020 x   288 x   670       21777743462400       0.0%    100.0%      0.0%
 flops    13 x    13 x   128       24213591477504       0.0%    100.0%      0.0%
 flops  2020 x   288 x   128       26989791805440       0.0%    100.0%      0.0%
 flops  2020 x   256 x   670       29036991283200       0.0%    100.0%      0.0%
 flops  2020 x   256 x   128       35986389073920       0.0%    100.0%      0.0%
 flops    13 x    32 x    13      141549258614400       0.0%    100.0%      0.0%
 flops inhomo. stacks             153172293681600     100.0%      0.0%      0.0%
 flops total                       732.922137E+12      20.9%     79.1%      0.0%
 flops max/rank                     32.518355E+12      21.0%     79.0%      0.0%
 matmuls inhomo. stacks                    441000     100.0%      0.0%      0.0%
 matmuls total                        18133304802       0.0%    100.0%      0.0%
 number of processed stacks              24710868       1.8%     98.2%      0.0%
 average stack size                                     1.0     747.1       0.0
 marketing flops                     1.254644E+15
 -------------------------------------------------------------------------------
 # multiplications                          14003
 max memory usage/rank               1.231344E+09
 # max total images/rank                        3
 # max 3D layers                                1
 # MPI messages exchanged                 6385368
 MPI messages size (bytes):
  total size                        11.743353E+12
  min size                           0.000000E+00
  max size                          11.264064E+06
  average size                       1.839104E+06
 MPI breakdown and total messages size (bytes):
             size <=      128               50880                        0
       128 < size <=     8192                   0                        0
      8192 < size <=    32768                2160                 70778880
     32768 < size <=   131072                 720                 29253120
    131072 < size <=  4194304             6052248            8703244048680
   4194304 < size <= 16777216              279360            3041992431840
  16777216 < size                               0                        0
 -------------------------------------------------------------------------------

 *** WARNING in dbcsr_mm.F:291 :: Using a non-square number of MPI ranks ***
 *** might lead to poor performance. Used ranks: 24 Suggested: 25 49     ***

 -------------------------------------------------------------------------------
 -                                                                             -
 -                      DBCSR MESSAGE PASSING PERFORMANCE                      -
 -                                                                             -
 -------------------------------------------------------------------------------
 ROUTINE             CALLS      AVE VOLUME [Bytes]
 MP_Bcast              142                     12.
 MP_Allreduce        70173                    101.
 MP_Alltoall         68384                 909144.
 MP_ISend           643096                 833009.
 MP_IRecv           633504                 838230.
 -------------------------------------------------------------------------------

 -------------------------------------------------------------------------------
 -                                                                             -
 -                                DBM STATISTICS                               -
 -                                                                             -
 -------------------------------------------------------------------------------
    M  x    N  x    K                                          COUNT     PERCENT
 -------------------------------------------------------------------------------

 -------------------------------------------------------------------------------
 -                                                                             -
 -                                GRID STATISTICS                              -
 -                                                                             -
 -------------------------------------------------------------------------------
 LP    KERNEL             BACKEND                              COUNT     PERCENT
 4     collocate ortho    CPU                              292172386      50.45%
 4     integrate ortho    CPU                              146086193      25.23%
 3     collocate ortho    CPU                               57967858      10.01%
 3     integrate ortho    CPU                               28983929       5.01%
 7     integrate ortho    CPU                               22698273       3.92%
 2     collocate ortho    CPU                               13519986       2.33%
 2     integrate ortho    CPU                                6759993       1.17%
 6     integrate ortho    CPU                                4520682       0.78%
 5     integrate ortho    CPU                                1942253       0.34%
 5     collocate ortho    CPU                                1782100       0.31%
 0     collocate general  CPU                                1239984       0.21%
 3     integrate general  CPU                                1224288       0.21%
 8     integrate ortho    CPU                                 138450       0.02%
 6     collocate ortho    CPU                                  36144       0.01%
 9     integrate ortho    CPU                                   2808       0.00%
 -------------------------------------------------------------------------------

 MEMORY| Estimated peak process memory [MiB]                                1175

 -------------------------------------------------------------------------------
 -                                                                             -
 -                         MESSAGE PASSING PERFORMANCE                         -
 -                                                                             -
 -------------------------------------------------------------------------------

 ROUTINE             CALLS      AVE VOLUME [Bytes]
 MP_Group                5
 MP_Bcast            36732                 230772.
 MP_Allreduce       103105                   1249.
 MP_Sync               823
 MP_Alltoall         17838               33384522.
 MP_SendRecv         76452                 116667.
 MP_ISendRecv        40020                 127093.
 MP_Wait            147847
 MP_comm_split         818
 MP_ISend            96268                 808187.
 MP_IRecv            96268                 808495.
 -------------------------------------------------------------------------------


 -------------------------------------------------------------------------------
 -                                                                             -
 -                           R E F E R E N C E S                               -
 -                                                                             -
 -------------------------------------------------------------------------------
 
 CP2K version 2023.2, the CP2K developers group (2023).
 CP2K is freely available from https://www.cp2k.org/ .

 Kuehne,Thomas D.; Iannuzzi,Marcella; Del Ben,Mauro;
 Rybkin,Vladimir V.; Seewald,Patrick; Stein,Frederick; Laino,Teodoro;
 Khaliullin,Rustam Z.; Schuett,Ole; Schiffmann,Florian; Golze,Dorothea;
 Wilhelm,Jan; Chulkov,Sergey; Bani-Hashemian,Mohammad Hossein;
 Weber,Valery; Borstnik,Urban; Taillefumier,Mathieu;
 Jakobovits,Alice Shoshana; Lazzaro,Alfio; Pabst,Hans; Mueller,Tiziano;
 Schade,Robert; Guidon,Manuel; Andermatt,Samuel; Holmberg,Nico;
 Schenter,Gregory K.; Hehn,Anna; Bussy,Augustin; Belleflamme,Fabian;
 Tabacchi,Gloria; Gloess,Andreas; Lass,Michael; Bethune,Iain;
 Mundy,Christopher J.; Plessl,Christian; Watkins,Matt;
 VandeVondele,Joost; Krack,Matthias; Hutter,Juerg. 
 The Journal of Chemical Physics, 152 (19), (2020). 
 CP2K: An electronic structure and molecular dynamics software package -
 Quickstep: Efficient and accurate electronic structure calculations.
 https://doi.org/10.1063/5.0007045

 Goerigk, Lars; Hansen, Andreas; Bauer, Christoph; Ehrlich, Stephan;
 Najibi, Asim; Grimme, Stefan. , 19 (48), (2017). 
 A look at the density functional theory zoo with the advanced GMTKN55 database
 for general main group thermochemistry, kinetics and noncovalent interactions.
 https://doi.org/10.1039/C7CP04913G

 Schuett, Ole; Messmer, Peter; Hutter, Juerg; VandeVondele, Joost. 
 Electronic Structure Calculations on Graphics Processing Units, John
 Wiley & Sons, Ltd, 173-190 (2016). 
 GPU-Accelerated Sparse Matrix-Matrix Multiplication for
 Linear Scaling Density Functional Theory.
 https://doi.org/10.1002/9781118670712.ch8

 Heinecke, A; Henry, G; Hutchinson, M; Pabst, H. 
 Proceedings of Intl. Supercomputing Conference, 981-991 (2016). 
 LIBXSMM: Accelerating Small Matrix Multiplications
 by Runtime Code Generation.
 https://doi.org/10.1109/SC.2016.83

 Borstnik, U; VandeVondele, J; Weber, V; Hutter, J. 
 PARALLEL COMPUTING, 40 (5-6), 47-58 (2014). 
 Sparse matrix multiplication: The distributed block-compressed sparse
 row library.
 https://doi.org/10.1016/j.parco.2014.03.012

 Hutter, J; Iannuzzi, M; Schiffmann, F; VandeVondele, J. 
 WIREs Comput Mol Sci., 4 (1), 15-25 (2014). 
 CP2K: atomistic simulations of condensed matter systems.
 https://doi.org/10.1002/wcms.1159

 Grimme, S; Ehrlich, S; Goerigk, L. 
 JOURNAL OF COMPUTATIONAL CHEMISTRY, 32, 1456 (2011). 
 Effect of the damping function in dispersion corrected density functional theory.
 https://doi.org/10.1002/jcc.21759

 Grimme, S; Antony, J; Ehrlich, S; Krieg, H. 
 JOURNAL OF CHEMICAL PHYSICS, 132 (15), 154104 (2010). 
 A consistent and accurate ab initio parametrization of density
 functional dispersion correction (DFT-D) for the 94 elements H-Pu.
 https://doi.org/10.1063/1.3382344

 VandeVondele, J; Hutter, J. 
 JOURNAL OF CHEMICAL PHYSICS, 127 (11), 114105 (2007). 
 Gaussian basis sets for accurate calculations on molecular systems in
 gas and condensed phases.
 https://doi.org/10.1063/1.2770708

 Kuhne, TD; Krack, M; Mohamed, FR; Parrinello, M. 
 PHYSICAL REVIEW LETTERS, 98 (6), 066401 (2007). 
 Efficient and accurate Car-Parrinello-like approach to
 Born-Oppenheimer molecular dynamics.
 https://doi.org/10.1103/PhysRevLett.98.066401

 Krack, M. 
 THEORETICAL CHEMISTRY ACCOUNTS, 114 (1-3), 145-152 (2005). 
 Pseudopotentials for H to Kr optimized for gradient-corrected
 exchange-correlation functionals.
 https://doi.org/10.1007/s00214-005-0655-y

 VandeVondele, J; Krack, M; Mohamed, F; Parrinello, M; Chassaing, T;
 Hutter, J. COMPUTER PHYSICS COMMUNICATIONS, 167 (2), 103-128 (2005). 
 QUICKSTEP: Fast and accurate density functional calculations using a
 mixed Gaussian and plane waves approach.
 https://doi.org/10.1016/j.cpc.2004.12.014

 Frigo, M; Johnson, SG. 
 PROCEEDINGS OF THE IEEE, 93 (2), 216-231 (2005). 
 The design and implementation of FFTW3.
 https://doi.org/10.1109/JPROC.2004.840301

 Kolafa, J. 
 JOURNAL OF COMPUTATIONAL CHEMISTRY, 25 (3), 335-342 (2004). 
 Time-reversible always stable predictor-corrector method for
 molecular dynamics of polarizable molecules.
 https://doi.org/10.1002/jcc.10385

 VandeVondele, J; Hutter, J. 
 JOURNAL OF CHEMICAL PHYSICS, 118 (10), 4365-4369 (2003). 
 An efficient orbital transformation method for electronic structure
 calculations.
 https://doi.org/10.1063/1.1543154

 Hartwigsen, C; Goedecker, S; Hutter, J. 
 PHYSICAL REVIEW B, 58 (7), 3641-3662 (1998). 
 Relativistic separable dual-space Gaussian pseudopotentials from H to Rn.
 https://doi.org/10.1103/PhysRevB.58.3641

 Lippert, G; Hutter, J; Parrinello, M. 
 MOLECULAR PHYSICS, 92 (3), 477-487 (1997). 
 A hybrid Gaussian and plane wave density functional scheme.
 https://doi.org/10.1080/002689797170220

 Perdew, JP; Burke, K; Ernzerhof, M. 
 PHYSICAL REVIEW LETTERS, 77 (18), 3865-3868 (1996). 
 Generalized gradient approximation made simple.
 https://doi.org/10.1103/PhysRevLett.77.3865

 Goedecker, S; Teter, M; Hutter, J. 
 PHYSICAL REVIEW B, 54 (3), 1703-1710 (1996). 
 Separable dual-space Gaussian pseudopotentials.
 https://doi.org/10.1103/PhysRevB.54.1703


 -------------------------------------------------------------------------------
 -                                                                             -
 -                                T I M I N G                                  -
 -                                                                             -
 -------------------------------------------------------------------------------
 SUBROUTINE                       CALLS  ASD         SELF TIME        TOTAL TIME
                                MAXIMUM       AVERAGE  MAXIMUM  AVERAGE  MAXIMUM
 CP2K                                 1  1.0    0.022    0.023 6158.187 6158.199
 cp_geo_opt                           1  2.0    0.011    0.011 6156.968 6156.980
 geoopt_bfgs                          1  3.0    0.139    0.157 6156.956 6156.969
 cp_eval_at                          79  4.0    0.014    0.099 6131.553 6131.643
 qs_forces                           78  5.0    0.029    0.030 6098.476 6098.489
 qs_energies                         79  6.0    0.007    0.008 5730.751 5730.916
 scf_env_do_scf                      79  7.0    0.004    0.009 5439.097 5439.200
 scf_env_do_scf_inner_loop          925  8.0    0.024    0.170 3883.108 3884.496
 rebuild_ks_matrix                 1003  9.8    0.005    0.005 1883.371 1886.180
 qs_ks_build_kohn_sham_matrix      1003 10.8    0.136    0.155 1883.366 1886.175
 qs_ks_update_qs_env               1005  9.0    0.008    0.009 1570.562 1573.014
 init_scf_loop                       80  8.0    0.003    0.004 1552.796 1552.835
 dbcsr_multiply_generic           14003 13.6    0.944    1.046 1438.890 1446.108
 prepare_preconditioner              80  9.0    0.001    0.001 1333.522 1334.092
 qs_scf_new_mos                     925  9.0    0.006    0.009 1305.194 1308.215
 qs_scf_loop_do_ot                  925 10.0    0.006    0.008 1305.188 1308.209
 make_preconditioner                 80 10.0    0.002    0.003 1283.035 1283.420
 make_full_all                       80 11.0    0.178    0.212 1235.222 1235.268
 ot_scf_mini                        925 11.0    0.035    0.041 1212.057 1214.227
 pw_transfer                      16918 13.7    0.839    0.891 1151.114 1160.588
 multiply_cannon                  14003 14.6    1.323    1.730 1132.986 1156.078
 fft_wrap_pw1pw2                  14912 14.8    0.146    0.156 1136.816 1146.421
 multiply_cannon_loop             14003 15.6    2.289    2.489 1082.390 1105.169
 fft_wrap_pw1pw2_180               8576 16.4  186.061  190.113 1092.896 1100.762
 qs_vxc_create                     1003 11.8    0.023    0.025 1019.822 1023.208
 qs_rho_update_rho_low             1004  9.1    0.005    0.005  946.332  946.851
 calculate_rho_elec                1004 10.1    3.152    3.355  946.327  946.846
 cp_fm_syevd                        818 13.2    0.010    0.012  934.664  935.565
 cp_fm_redistribute_end             818 14.2  468.227  931.094  468.769  931.108
 cp_fm_syevd_base                   818 14.2  460.017  922.140  460.017  922.140
 multiply_cannon_multrec         168036 16.6  763.495  825.430  763.700  825.639
 fft3d_ps                         14912 16.8  343.888  356.384  762.985  774.559
 xc_vxc_pw_create                   580 12.6   19.505   22.206  744.938  748.327
 xc_pw_derive                      4749 14.7    0.089    0.098  692.299  703.444
 ot_mini                            925 12.0    0.008    0.011  696.587  699.886
 xc_rho_set_and_dset_create        1003 13.8    9.032   10.165  644.881  651.038
 sum_up_and_integrate               580 11.6    5.608    6.048  621.643  621.894
 integrate_v_rspace                 580 12.6    0.022    0.025  616.033  616.301
 grid_collocate_task_list          1004 11.1  521.204  557.537  521.204  557.537
 grid_integrate_task_list           580 13.6  435.542  458.995  435.542  458.995
 mp_waitall_1                    835747 17.8  382.535  450.248  382.535  450.248
 density_rs2pw                     1004 11.1    0.062    0.069  399.482  433.707
 apply_preconditioner_dbcsr         582 14.0    0.002    0.002  415.306  416.852
 apply_all                          582 15.0    0.502    0.621  415.304  416.851
 multiply_cannon_metrocomm3      168036 16.6    0.631    0.806  305.638  370.718
 ot_new_cg_direction                502 13.0    0.010    0.011  365.770  365.771
 xc_pw_divergence                   580 13.6    0.035    0.039  340.245  349.855
 write_mo_set_to_restart            925  9.0   13.518  324.040  335.142  337.058
 cp_fm_write_unformatted            181  8.4  312.202  325.398  321.685  336.882
 write_mo_set_low                   104 10.0    0.002    0.043  319.198  334.421
 qs_ot_get_derivative               502 13.0    0.006    0.009  326.627  329.258
 qs_ks_update_qs_env_forces          78  6.0    0.000    0.000  315.968  316.287
 x_to_yz                           7493 18.5  188.520  192.953  268.967  284.821
 xc_exc_calc                        423 13.0    1.290    1.298  274.860  274.861
 make_m2s                         28006 14.6    0.800    0.940  234.624  237.924
 init_scf_run                        79  7.0    0.002    0.005  215.081  215.121
 scf_env_initial_rho_setup           79  8.0    0.001    0.002  215.079  215.115
 qs_ot_get_p                       1005 11.8    0.007    0.012  205.815  212.028
 wfi_extrapolate                     79  9.0    0.012    0.013  212.015  212.016
 parallel_gemm_fm                  1318 10.2    0.004    0.005  206.111  206.876
 parallel_gemm_fm_gemm             1318 11.2    0.004    0.005  206.107  206.872
 cp_fm_gemm                        1318 12.2  206.102  206.868  206.102  206.868
 rs_pw_transfer                    8077 12.9    0.088    0.093  167.601  205.652
 xc_functional_eval                1003 14.8    0.009    0.011  185.134  187.501
 pbe_lda_eval                      1003 15.8  185.125  187.492  185.125  187.492
 make_images                      28006 15.6    3.716    4.048  173.454  176.913
 mp_alltoall_z22v                 14912 18.8  132.772  164.207  132.772  164.207
 yz_to_x                           7419 17.1   97.486   99.370  149.810  162.970
 qs_ot_get_orbitals                 925 12.0    0.007    0.009  154.246  155.737
 potential_pw2rs                    580 13.6    0.192    0.260  151.008  151.320
 cp_dbcsr_syevd                     660 13.4    0.048    0.075  139.349  140.123
 cp_fm_cholesky_reduce               80 12.0  133.795  133.829  133.795  133.829
 qs_ot_p2m_diag                     500 13.0    2.243    2.467  123.442  123.871
 -------------------------------------------------------------------------------

 The number of warnings for this run is : 2
 
 -------------------------------------------------------------------------------
  **** **** ******  **  PROGRAM ENDED AT                 2025-01-28 16:07:07.849
 ***** ** ***  *** **   PROGRAM RAN ON                         c0140.ten.osc.edu
 **    ****   ******    PROGRAM RAN BY                                   xiutinc
 ***** **    ** ** **   PROGRAM PROCESS ID                                880289
  **** **  *******  **  PROGRAM STOPPED IN /fs/scratch/PAS2536/xiutinc/386237.ad
                                           l02_01_02_propanol
