 DBCSR| CPU Multiplication driver                                           XSMM
 DBCSR| Multrec recursion limit                                              512
 DBCSR| Multiplication stack size                                           1000
 DBCSR| Maximum elements for images                                    UNLIMITED
 DBCSR| Multiplicative factor virtual images                                   1
 DBCSR| Use multiplication densification                                       T
 DBCSR| Multiplication size stacks                                             3
 DBCSR| Use memory pool for CPU allocation                                     F
 DBCSR| Number of 3D layers                                               SINGLE
 DBCSR| Use MPI memory allocation                                              F
 DBCSR| Use RMA algorithm                                                      F
 DBCSR| Use Communication thread                                               T
 DBCSR| Communication thread load                                             87
 DBCSR| MPI: My node id                                                        0
 DBCSR| MPI: Number of nodes                                                  24
 DBCSR| OMP: Current number of threads                                         1
 DBCSR| OMP: Max number of threads                                             1
 DBCSR| Split modifier for TAS multiplication algorithm                  1.0E+00


  **** **** ******  **  PROGRAM STARTED AT               2022-09-04 17:48:31.140
 ***** ** ***  *** **   PROGRAM STARTED ON         node0213.palmetto.clemson.edu
 **    ****   ******    PROGRAM STARTED BY                               xiutinc
 ***** **    ** ** **   PROGRAM PROCESS ID                               3555694
  **** **  *******  **  PROGRAM STARTED IN    /scratch1/xiutinc/CP2K-96992.pbs02

 CP2K| version string:                                          CP2K version 9.1
 CP2K| source code revision number:                                  git:d8d7100
 CP2K| cp2kflags: omp libint fftw3 libxc parallel mpi3 scalapack xsmm           
 CP2K| is freely available from                            https://www.cp2k.org/
 CP2K| Program compiled at                          Mon Aug  8 12:17:03 EDT 2022
 CP2K| Program compiled on                         node0352.palmetto.clemson.edu
 CP2K| Program compiled for                           linux-rocky8-ivybridge-gcc
 CP2K| Data directory path    /software/spackages/linux-rocky8-ivybridge/gcc-9.5
 CP2K| Input file name                                             intE01_aq.inp

 GLOBAL| Force Environment number                                              1
 GLOBAL| Basis set file name                                          BASIS_file
 GLOBAL| Potential file name                                     POTENTIALS_file
 GLOBAL| MM Potential file name                                     MM_POTENTIAL
 GLOBAL| Coordinate file name                                    ./intE01_aq.xyz
 GLOBAL| Method name                                                        CP2K
 GLOBAL| Project name                                                  intE01_aq
 GLOBAL| Run type                                                        GEO_OPT
 GLOBAL| FFT library                                                       FFTW3
 GLOBAL| Diagonalization library                                       ScaLAPACK
 GLOBAL| Orthonormality check for eigenvectors                          DISABLED
 GLOBAL| Matrix multiplication library                                 ScaLAPACK
 GLOBAL| All-to-all communication in single precision                          F
 GLOBAL| FFTs using library dependent lengths                                  F
 GLOBAL| Grid backend                                                       AUTO
 GLOBAL| Global print level                                                  LOW
 GLOBAL| MPI I/O enabled                                                       T
 GLOBAL| Total number of message passing processes                            24
 GLOBAL| Number of threads for this process                                    1
 GLOBAL| This output is from process                                           0
 GLOBAL| Stack size for threads created by OpenMP (OMP_STACKSIZE)        default
 GLOBAL| CPU model name                Intel(R) Xeon(R) CPU E5-2680 v3 @ 2.50GHz
 GLOBAL| CPUID                                                              1002
 GLOBAL| Compiled for CPUID                                                 1001

 *** HINT in environment.F:869 :: The compiler target flags (x86_avx) used ***
 *** to build this binary cannot exploit all extensions of this CPU model  ***
 *** (x86_avx2). Consider compiler target flags as part of FCFLAGS and     ***
 *** CFLAGS (ARCH file).                                                   ***


 MEMORY| system memory details [Kb]
 MEMORY|                        rank 0           min           max       average
 MEMORY| MemTotal            131294764     131294764     131294764     131294764
 MEMORY| MemFree             122900624     122900624     122900760     122900629
 MEMORY| Buffers                  3380          3380          3380          3380
 MEMORY| Cached                2718808       2718808       2718808       2718808
 MEMORY| Slab                   666652        666572        666652        666648
 MEMORY| SReclaimable           290668        290668        290668        290668
 MEMORY| MemLikelyFree       125913480     125913480     125913616     125913485


 *******************************************************************************
 *******************************************************************************
 **                                                                           **
 **     #####                         ##              ##                      **
 **    ##   ##            ##          ##              ##                      **
 **   ##     ##                       ##            ######                    **
 **   ##     ##  ##   ##  ##   #####  ##  ##   ####   ##    #####    #####    **
 **   ##     ##  ##   ##  ##  ##      ## ##   ##      ##   ##   ##  ##   ##   **
 **   ##  ## ##  ##   ##  ##  ##      ####     ###    ##   ######   ######    **
 **    ##  ###   ##   ##  ##  ##      ## ##      ##   ##   ##       ##        **
 **     #######   #####   ##   #####  ##  ##  ####    ##    #####   ##        **
 **           ##                                                    ##        **
 **                                                                           **
 **                                                ... make the atoms dance   **
 **                                                                           **
 **            Copyright (C) by CP2K developers group (2000-2021)             **
 **                      J. Chem. Phys. 152, 194103 (2020)                    **
 **                                                                           **
 *******************************************************************************


 TOTAL NUMBERS AND MAXIMUM NUMBERS

  Total number of            - Atomic kinds:                                   5
                             - Atoms:                                        661
                             - Shell sets:                                   661
                             - Shells:                                      3192
                             - Primitive Cartesian functions:               3116
                             - Cartesian basis functions:                   8749
                             - Spherical basis functions:                   8142

  Maximum angular momentum of- Orbital basis functions:                        3
                             - Local part of the GTH pseudopotential:          2
                             - Non-local part of the GTH pseudopotential:      3


 SCF PARAMETERS         Density guess:                                   RESTART
                        --------------------------------------------------------
                        max_scf:                                             500
                        max_scf_history:                                       0
                        max_diis:                                              4
                        --------------------------------------------------------
                        eps_scf:                                        1.00E-06
                        eps_scf_history:                                0.00E+00
                        eps_diis:                                       1.00E-01
                        eps_eigval:                                     1.00E-05
                        --------------------------------------------------------
                        level_shift [a.u.]:                                 0.00
                        --------------------------------------------------------
                        Outer loop SCF in use 
                        No variables optimised in outer loop
                        eps_scf                                         1.00E-06
                        max_scf                                               50
                        No outer loop optimization
                        step_size                                       5.00E-01

 BFGS| Use rational function optimization for step estimation:                NO
 BFGS| Use model Hessian for initial guess:                                  YES
 BFGS| Restart Hessian:                                                       NO
 BFGS| Trust radius:                                                       0.472

 *******************************************************************************
 ***                     STARTING GEOMETRY OPTIMIZATION                      ***
 ***                                   BFGS                                  ***
 *******************************************************************************

 Number of electrons:                                                       3296
 Number of occupied orbitals:                                               1648
 Number of molecular orbitals:                                              1648

 Number of orbital functions:                                               8142
 Number of independent orbital functions:                                   8142

 Extrapolation method: initial_guess

 *** WARNING in qs_initial_guess.F:309 :: User requested to restart the   ***
 *** wavefunction from the file named: intE01_aq-RESTART.wfn. This file   ***
 *** does not exist. Please check the existence of the file or change     ***
 *** properly the value of the keyword WFN_RESTART_FILE_NAME. Calculation ***
 *** continues using ATOMIC GUESS.                                        ***



 SCF WAVEFUNCTION OPTIMIZATION

  ----------------------------------- OT ---------------------------------------
  Minimizer      : CG                  : conjugate gradient
  Preconditioner : FULL_ALL            : diagonalization, state selective
  Precond_solver : DEFAULT
  Line search    : 2PNT                : 2 energies, one gradient
  stepsize       :    0.15000000                  energy_gap     :    0.00100000
  eps_taylor     :   0.10000E-15                  max_taylor     :             4
  ----------------------------------- OT ---------------------------------------

  Step     Update method      Time    Convergence         Total energy    Change
  ------------------------------------------------------------------------------
     1 OT CG       0.15E+00   40.5     0.01654975     -7213.6203976312 -7.21E+03
     2 OT LS       0.63E-01    4.5                    -7110.8188910387
     3 OT CG       0.63E-01   11.3     0.08160020     -7097.9501071981  1.16E+02
     4 OT LS       0.29E-01    4.5                    -6614.2970105674
     5 OT CG       0.29E-01   11.3     0.13709471     -6702.7553805842  3.95E+02
     6 OT LS       0.15E-01    4.5                    -6887.7864388040
     7 OT CG       0.15E-01   13.8     0.05657578     -7079.2701614690 -3.77E+02
     8 OT LS       0.88E-02    4.5                    -7175.2007773358
     9 OT CG       0.88E-02   11.4     0.01615439     -7200.7213245061 -1.21E+02
    10 OT LS       0.22E-01    4.5                    -7223.6665050537
    11 OT CG       0.22E-01   11.3     0.01759011     -7234.8643008079 -3.41E+01
    12 OT LS       0.24E-01    4.6                    -7279.8570395146
    13 OT CG       0.24E-01   11.3     0.01093488     -7281.5341800322 -4.67E+01
    14 OT LS       0.34E-01    4.5                    -7307.7124398605
    15 OT CG       0.34E-01   11.3     0.00851191     -7312.0785774631 -3.05E+01
    16 OT LS       0.23E-01    4.5                    -7321.1745379954
    17 OT CG       0.23E-01   11.4     0.01089723     -7325.4077529600 -1.33E+01
    18 OT LS       0.24E-01    4.5                    -7344.2747015959
    19 OT CG       0.24E-01   11.4     0.01291671     -7344.1744994971 -1.88E+01
    20 OT LS       0.17E-01    4.5                    -7358.9638304735
    21 OT CG       0.17E-01   11.3     0.00470955     -7359.3329364354 -1.52E+01
    22 OT LS       0.67E-01    4.5                    -7363.9693188690
    23 OT CG       0.67E-01   11.3     0.00481366     -7370.4636983196 -1.11E+01
    24 OT LS       0.49E-01    4.5                    -7377.1146168974
    25 OT CG       0.49E-01   11.4     0.00347378     -7377.7552350568 -7.29E+00
    26 OT LS       0.64E-01    4.5                    -7382.7497841088
    27 OT CG       0.64E-01   11.5     0.00381861     -7382.8845471676 -5.13E+00
    28 OT LS       0.44E-01    4.5                    -7385.9481769028
    29 OT CG       0.44E-01   11.4     0.00294756     -7386.5491171222 -3.66E+00
    30 OT LS       0.71E-01    4.5                    -7390.1093014691
    31 OT CG       0.71E-01   11.4     0.00319338     -7390.5312971156 -3.98E+00
    32 OT LS       0.46E-01    4.5                    -7392.3782534118
    33 OT CG       0.46E-01   11.3     0.00271272     -7393.0386671457 -2.51E+00
    34 OT LS       0.68E-01    4.5                    -7396.0155991187
    35 OT CG       0.68E-01   11.3     0.00253340     -7396.3061382887 -3.27E+00
    36 OT LS       0.65E-01    4.5                    -7398.9397799365
    37 OT CG       0.65E-01   11.4     0.00239084     -7398.9323499580 -2.63E+00
    38 OT LS       0.64E-01    4.5                    -7401.4608637380
    39 OT CG       0.64E-01   11.4     0.00254615     -7401.4712319060 -2.54E+00
    40 OT LS       0.50E-01    4.5                    -7403.3157891800
    41 OT CG       0.50E-01   11.3     0.00217246     -7403.4122955075 -1.94E+00
    42 OT LS       0.78E-01    4.7                    -7405.5927177172
    43 OT CG       0.78E-01   11.3     0.00176784     -7405.9734720174 -2.56E+00
    44 OT LS       0.85E-01    4.5                    -7407.8352124370
    45 OT CG       0.85E-01   11.4     0.00252255     -7407.8285308273 -1.86E+00
    46 OT LS       0.50E-01    4.5                    -7408.8578712266
    47 OT CG       0.50E-01   11.3     0.00222640     -7409.7071175697 -1.88E+00
    48 OT LS       0.55E-01    4.5                    -7411.5057908844
    49 OT CG       0.55E-01   13.0     0.00168617     -7411.5371927923 -1.83E+00
    50 OT LS       0.57E-01    6.5                    -7412.6880099362
    51 OT CG       0.57E-01   11.4     0.00186578     -7412.6852877096 -1.15E+00
    52 OT LS       0.63E-01    4.5                    -7414.0501767905
    53 OT CG       0.63E-01   11.4     0.00194305     -7414.0653942090 -1.38E+00
    54 OT LS       0.45E-01    4.5                    -7415.0320815016
    55 OT CG       0.45E-01   11.4     0.00158318     -7415.1549946933 -1.09E+00
    56 OT LS       0.84E-01    4.5                    -7416.2812525256
    57 OT CG       0.84E-01   11.4     0.00177651     -7416.5074689682 -1.35E+00
    58 OT LS       0.66E-01    4.5                    -7417.6407368513
    59 OT CG       0.66E-01   11.4     0.00191353     -7417.7406657571 -1.23E+00
    60 OT LS       0.55E-01    4.5                    -7419.0364521850
    61 OT CG       0.55E-01   11.3     0.00159255     -7419.0565542542 -1.32E+00
    62 OT LS       0.84E-01    4.5                    -7420.3657199146
    63 OT CG       0.84E-01   11.4     0.00151216     -7420.4906025392 -1.43E+00
    64 OT LS       0.76E-01    4.5                    -7421.5232370870
    65 OT CG       0.76E-01   11.4     0.00167318     -7421.5351362272 -1.04E+00
    66 OT LS       0.72E-01    4.5                    -7422.8953792440
    67 OT CG       0.72E-01   11.3     0.00142669     -7422.8920078938 -1.36E+00
    68 OT LS       0.77E-01    4.5                    -7423.9910680644
    69 OT CG       0.77E-01   11.4     0.00133784     -7423.9892919377 -1.10E+00
    70 OT LS       0.83E-01    4.5                    -7424.9210840937
    71 OT CG       0.83E-01   11.4     0.00147988     -7424.9262908423 -9.37E-01
    72 OT LS       0.72E-01    4.8                    -7425.9733663739
    73 OT CG       0.72E-01   11.3     0.00125674     -7425.9816681062 -1.06E+00
    74 OT LS       0.85E-01    4.5                    -7426.8935961644
    75 OT CG       0.85E-01   11.4     0.00123038     -7426.9031246958 -9.21E-01
    76 OT LS       0.86E-01    4.5                    -7427.7239007871
    77 OT CG       0.86E-01   11.4     0.00134611     -7427.7239797360 -8.21E-01
    78 OT LS       0.72E-01    4.5                    -7428.5658170836
    79 OT CG       0.72E-01   11.4     0.00115827     -7428.5864639634 -8.62E-01
    80 OT LS       0.88E-01    4.5                    -7429.3690809115
    81 OT CG       0.88E-01   11.6     0.00109445     -7429.3859902394 -8.00E-01
    82 OT LS       0.89E-01    6.7                    -7430.0654536153
    83 OT CG       0.89E-01   11.4     0.00119254     -7430.0654716571 -6.79E-01
    84 OT LS       0.79E-01    4.5                    -7430.8053274746
    85 OT CG       0.79E-01   11.4     0.00105289     -7430.8107201081 -7.45E-01
    86 OT LS       0.91E-01    4.5                    -7431.4936916621
    87 OT CG       0.91E-01   11.4     0.00103937     -7431.5012589837 -6.91E-01
    88 OT LS       0.82E-01    4.5                    -7432.0639337014
    89 OT CG       0.82E-01   11.4     0.00107588     -7432.0734474953 -5.72E-01
    90 OT LS       0.83E-01    4.5                    -7432.7086339666
    91 OT CG       0.83E-01   11.4     0.00095562     -7432.7090354999 -6.36E-01
    92 OT LS       0.88E-01    4.5                    -7433.2653401342
    93 OT CG       0.88E-01   11.4     0.00091445     -7433.2670617122 -5.58E-01
    94 OT LS       0.86E-01    4.5                    -7433.7426846856
    95 OT CG       0.86E-01   11.4     0.00096683     -7433.7435868590 -4.77E-01
    96 OT LS       0.85E-01    4.5                    -7434.2657123147
    97 OT CG       0.85E-01   11.4     0.00094941     -7434.2655690863 -5.22E-01
    98 OT LS       0.79E-01    4.5                    -7434.7459788316
    99 OT CG       0.79E-01   11.4     0.00087042     -7434.7483546290 -4.83E-01
   100 OT LS       0.81E-01    4.5                    -7435.1605357673
   101 OT CG       0.81E-01   11.4     0.00085917     -7435.1604292101 -4.12E-01
   102 OT LS       0.82E-01    4.5                    -7435.5581145470
   103 OT CG       0.82E-01   11.5     0.00088641     -7435.5581841025 -3.98E-01
   104 OT LS       0.80E-01    4.5                    -7435.9796324222
   105 OT CG       0.80E-01   11.4     0.00080458     -7435.9795365731 -4.21E-01
   106 OT LS       0.86E-01    4.5                    -7436.3564246813
   107 OT CG       0.86E-01   11.4     0.00077931     -7436.3578402456 -3.78E-01
   108 OT LS       0.86E-01    4.5                    -7436.7062548082
   109 OT CG       0.86E-01   11.4     0.00079018     -7436.7062284628 -3.48E-01
   110 OT LS       0.86E-01    4.5                    -7437.0623828936
   111 OT CG       0.86E-01   11.4     0.00078061     -7437.0623802911 -3.56E-01
   112 OT LS       0.80E-01    4.5                    -7437.3892339247
   113 OT CG       0.80E-01   11.4     0.00071574     -7437.3908756376 -3.28E-01
   114 OT LS       0.87E-01    4.5                    -7437.6911402555
   115 OT CG       0.87E-01   11.4     0.00071943     -7437.6929722324 -3.02E-01
   116 OT LS       0.82E-01    4.5                    -7437.9733694483
   117 OT CG       0.82E-01   11.4     0.00072751     -7437.9748092879 -2.82E-01
   118 OT LS       0.84E-01    4.6                    -7438.2723127064
   119 OT CG       0.84E-01   11.3     0.00068350     -7438.2726518239 -2.98E-01
   120 OT LS       0.84E-01    4.5                    -7438.5371096879
   121 OT CG       0.84E-01   11.3     0.00064989     -7438.5371111817 -2.64E-01
   122 OT LS       0.88E-01    4.5                    -7438.7876030039
   123 OT CG       0.88E-01   12.1     0.00064682     -7438.7881509024 -2.51E-01
   124 OT LS       0.87E-01    5.4                    -7439.0308404163
   125 OT CG       0.87E-01   12.4     0.00065459     -7439.0309031365 -2.43E-01
   126 OT LS       0.83E-01    4.5                    -7439.2684029722
   127 OT CG       0.83E-01   11.4     0.00061350     -7439.2688949600 -2.38E-01
   128 OT LS       0.84E-01    4.5                    -7439.4829084986
   129 OT CG       0.84E-01   11.4     0.00059537     -7439.4829745459 -2.14E-01
   130 OT LS       0.85E-01    4.5                    -7439.6846547717
   131 OT CG       0.85E-01   11.4     0.00058589     -7439.6846534098 -2.02E-01
   132 OT LS       0.87E-01    4.5                    -7439.8844254694
   133 OT CG       0.87E-01   11.5     0.00058419     -7439.8845749941 -2.00E-01
   134 OT LS       0.84E-01    4.5                    -7440.0771782282
   135 OT CG       0.84E-01   11.4     0.00055552     -7440.0773834856 -1.93E-01
   136 OT LS       0.87E-01    4.5                    -7440.2584779456
   137 OT CG       0.87E-01   11.4     0.00054575     -7440.2587069436 -1.81E-01
   138 OT LS       0.86E-01    4.5                    -7440.4295413392
   139 OT CG       0.86E-01   11.3     0.00053492     -7440.4296211290 -1.71E-01
   140 OT LS       0.88E-01    4.5                    -7440.5976011729
   141 OT CG       0.88E-01   11.4     0.00052569     -7440.5977082017 -1.68E-01
   142 OT LS       0.86E-01    4.5                    -7440.7576764657
   143 OT CG       0.86E-01   11.3     0.00050610     -7440.7577197919 -1.60E-01
   144 OT LS       0.88E-01    4.5                    -7440.9099429817
   145 OT CG       0.88E-01   11.4     0.00050026     -7440.9100337616 -1.52E-01
   146 OT LS       0.87E-01    4.5                    -7441.0556891492
   147 OT CG       0.87E-01   11.3     0.00049079     -7441.0557424728 -1.46E-01
   148 OT LS       0.89E-01    4.6                    -7441.1985101062
   149 OT CG       0.89E-01   11.4     0.00047987     -7441.1985662587 -1.43E-01
   150 OT LS       0.87E-01    4.5                    -7441.3326648317
   151 OT CG       0.87E-01   11.4     0.00046578     -7441.3327159098 -1.34E-01
   152 OT LS       0.88E-01    4.5                    -7441.4608209303
   153 OT CG       0.88E-01   11.3     0.00046064     -7441.4608389921 -1.28E-01
   154 OT LS       0.87E-01    4.5                    -7441.5845615185
   155 OT CG       0.87E-01   11.4     0.00045693     -7441.5845769116 -1.24E-01
   156 OT LS       0.87E-01    4.5                    -7441.7059815640
   157 OT CG       0.87E-01   12.9     0.00044495     -7441.7059816159 -1.21E-01
   158 OT LS       0.87E-01    4.5                    -7441.8215793970
   159 OT CG       0.87E-01   11.4     0.00043058     -7441.8215799930 -1.16E-01
   160 OT LS       0.90E-01    4.5                    -7441.9333936805
   161 OT CG       0.90E-01   11.3     0.00042465     -7441.9335014525 -1.12E-01
   162 OT LS       0.90E-01    4.5                    -7442.0419989081
   163 OT CG       0.90E-01   11.5     0.00042352     -7442.0419992210 -1.08E-01
   164 OT LS       0.89E-01    4.5                    -7442.1483185429
   165 OT CG       0.89E-01   11.4     0.00041552     -7442.1483375041 -1.06E-01
   166 OT LS       0.88E-01    4.5                    -7442.2501953737
   167 OT CG       0.88E-01   11.4     0.00040403     -7442.2501979096 -1.02E-01
   168 OT LS       0.89E-01    4.5                    -7442.3483119086
   169 OT CG       0.89E-01   11.3     0.00039761     -7442.3483405677 -9.81E-02
   170 OT LS       0.91E-01    4.5                    -7442.4444687983
   171 OT CG       0.91E-01   11.4     0.00039671     -7442.4444805388 -9.61E-02
   172 OT LS       0.90E-01    4.5                    -7442.5395848725
   173 OT CG       0.90E-01   11.4     0.00039286     -7442.5395876043 -9.51E-02
   174 OT LS       0.88E-01    4.5                    -7442.6310185922
   175 OT CG       0.88E-01   11.4     0.00038413     -7442.6310546471 -9.15E-02
   176 OT LS       0.89E-01    4.5                    -7442.7190158153
   177 OT CG       0.89E-01   11.4     0.00037729     -7442.7190177457 -8.80E-02
   178 OT LS       0.89E-01    4.6                    -7442.8044503385
   179 OT CG       0.89E-01   11.4     0.00037575     -7442.8044533233 -8.54E-02
   180 OT LS       0.89E-01    4.5                    -7442.8886059509
   181 OT CG       0.89E-01   11.3     0.00037259     -7442.8886097671 -8.42E-02
   182 OT LS       0.88E-01    4.5                    -7442.9704900207
   183 OT CG       0.88E-01   11.3     0.00036505     -7442.9704990867 -8.19E-02
   184 OT LS       0.89E-01    4.5                    -7443.0499127243
   185 OT CG       0.89E-01   11.4     0.00035673     -7443.0499197610 -7.94E-02
   186 OT LS       0.91E-01    4.5                    -7443.1272139949
   187 OT CG       0.91E-01   11.4     0.00035401     -7443.1272399006 -7.73E-02
   188 OT LS       0.90E-01    4.5                    -7443.2029693275
   189 OT CG       0.90E-01   11.4     0.00035190     -7443.2029717477 -7.57E-02
   190 OT LS       0.89E-01    4.5                    -7443.2770430432
   191 OT CG       0.89E-01   11.4     0.00034683     -7443.2770510734 -7.41E-02
   192 OT LS       0.89E-01    4.5                    -7443.3486865152
   193 OT CG       0.89E-01   11.5     0.00034070     -7443.3486883896 -7.16E-02
   194 OT LS       0.89E-01    4.5                    -7443.4177586536
   195 OT CG       0.89E-01   11.4     0.00033635     -7443.4177588015 -6.91E-02
   196 OT LS       0.89E-01    4.5                    -7443.4855316800
   197 OT CG       0.89E-01   11.4     0.00033408     -7443.4855343608 -6.78E-02
   198 OT LS       0.88E-01    5.1                    -7443.5516668162
   199 OT CG       0.88E-01   14.2     0.00032911     -7443.5516752918 -6.61E-02
   200 OT LS       0.89E-01    4.5                    -7443.6160952541
   201 OT CG       0.89E-01   11.3     0.00032295     -7443.6160959104 -6.44E-02
   202 OT LS       0.89E-01    4.5                    -7443.6785285879
   203 OT CG       0.89E-01   11.4     0.00031746     -7443.6785309202 -6.24E-02
   204 OT LS       0.90E-01    4.5                    -7443.7390450130
   205 OT CG       0.90E-01   11.4     0.00031414     -7443.7390454440 -6.05E-02
   206 OT LS       0.90E-01    4.5                    -7443.7983767159
   207 OT CG       0.90E-01   11.3     0.00030940     -7443.7983767532 -5.93E-02
   208 OT LS       0.90E-01    4.7                    -7443.8561931907
   209 OT CG       0.90E-01   11.4     0.00030469     -7443.8561943038 -5.78E-02
   210 OT LS       0.90E-01    4.5                    -7443.9121865675
   211 OT CG       0.90E-01   11.4     0.00030016     -7443.9121867017 -5.60E-02
   212 OT LS       0.90E-01    4.5                    -7443.9663603727
   213 OT CG       0.90E-01   11.4     0.00029641     -7443.9663609721 -5.42E-02
   214 OT LS       0.90E-01    4.5                    -7444.0192209900
   215 OT CG       0.90E-01   11.4     0.00029277     -7444.0192209938 -5.29E-02
   216 OT LS       0.90E-01    4.5                    -7444.0707412802
   217 OT CG       0.90E-01   11.4     0.00028889     -7444.0707413354 -5.15E-02
   218 OT LS       0.89E-01    4.5                    -7444.1205377859
   219 OT CG       0.89E-01   11.4     0.00028455     -7444.1205405276 -4.98E-02
   220 OT LS       0.89E-01    4.5                    -7444.1688499496
   221 OT CG       0.89E-01   11.3     0.00028047     -7444.1688499510 -4.83E-02
   222 OT LS       0.89E-01    4.5                    -7444.2159989505
   223 OT CG       0.89E-01   11.6     0.00027643     -7444.2159999166 -4.71E-02
   224 OT LS       0.90E-01    4.5                    -7444.2621175336
   225 OT CG       0.90E-01   11.4     0.00027317     -7444.2621196675 -4.61E-02
   226 OT LS       0.90E-01    4.5                    -7444.3069653739
   227 OT CG       0.90E-01   11.3     0.00026890     -7444.3069662362 -4.48E-02
   228 OT LS       0.90E-01    4.5                    -7444.3505187349
   229 OT CG       0.90E-01   11.4     0.00026512     -7444.3505189727 -4.36E-02
   230 OT LS       0.90E-01    4.5                    -7444.3930020362
   231 OT CG       0.90E-01   14.5     0.00026099     -7444.3930025495 -4.25E-02
   232 OT LS       0.90E-01    4.5                    -7444.4342970301
   233 OT CG       0.90E-01   11.4     0.00025797     -7444.4342973909 -4.13E-02
   234 OT LS       0.90E-01    4.5                    -7444.4744841138
   235 OT CG       0.90E-01   11.4     0.00025462     -7444.4744847669 -4.02E-02
   236 OT LS       0.89E-01    4.5                    -7444.5133987934
   237 OT CG       0.89E-01   11.4     0.00025120     -7444.5134001701 -3.89E-02
   238 OT LS       0.89E-01    4.7                    -7444.5512491478
   239 OT CG       0.89E-01   11.4     0.00024778     -7444.5512491615 -3.78E-02
   240 OT LS       0.90E-01    4.5                    -7444.5881867851
   241 OT CG       0.90E-01   11.4     0.00024457     -7444.5881871317 -3.69E-02
   242 OT LS       0.90E-01    4.5                    -7444.6241707592
   243 OT CG       0.90E-01   11.4     0.00024158     -7444.6241707604 -3.60E-02
   244 OT LS       0.90E-01    4.5                    -7444.6593679331
   245 OT CG       0.90E-01   11.4     0.00023809     -7444.6593681434 -3.52E-02
   246 OT LS       0.90E-01    4.5                    -7444.6937034398
   247 OT CG       0.90E-01   11.4     0.00023518     -7444.6937041449 -3.43E-02
   248 OT LS       0.90E-01    4.5                    -7444.7271112697
   249 OT CG       0.90E-01   11.4     0.00023241     -7444.7271115246 -3.34E-02
   250 OT LS       0.90E-01    4.5                    -7444.7596873190
   251 OT CG       0.90E-01   11.4     0.00022936     -7444.7596874019 -3.26E-02
   252 OT LS       0.90E-01    4.5                    -7444.7915220629
   253 OT CG       0.90E-01   11.5     0.00022739     -7444.7915223961 -3.18E-02
   254 OT LS       0.90E-01    4.5                    -7444.8225816652
   255 OT CG       0.90E-01   11.4     0.00022413     -7444.8225833177 -3.11E-02
   256 OT LS       0.90E-01    4.5                    -7444.8530018822
   257 OT CG       0.90E-01   11.4     0.00022069     -7444.8530038937 -3.04E-02
   258 OT LS       0.91E-01    4.5                    -7444.8827027185
   259 OT CG       0.91E-01   11.4     0.00021775     -7444.8827041477 -2.97E-02
   260 OT LS       0.91E-01    4.5                    -7444.9117360047
   261 OT CG       0.91E-01   11.3     0.00021473     -7444.9117364413 -2.90E-02
   262 OT LS       0.91E-01    4.5                    -7444.9400218642
   263 OT CG       0.91E-01   11.4     0.00021287     -7444.9400219701 -2.83E-02
   264 OT LS       0.90E-01    4.5                    -7444.9675046536
   265 OT CG       0.90E-01   11.4     0.00021031     -7444.9675081108 -2.75E-02
   266 OT LS       0.90E-01    4.5                    -7444.9941772541
   267 OT CG       0.90E-01   11.3     0.00020801     -7444.9941781835 -2.67E-02
   268 OT LS       0.90E-01    4.5                    -7445.0202512013
   269 OT CG       0.90E-01   11.6     0.00020569     -7445.0202512192 -2.61E-02
   270 OT LS       0.90E-01    4.5                    -7445.0457977266
   271 OT CG       0.90E-01   11.4     0.00020309     -7445.0457978322 -2.55E-02
   272 OT LS       0.90E-01    4.5                    -7445.0708155684
   273 OT CG       0.90E-01   13.6     0.00020099     -7445.0708161059 -2.50E-02
   274 OT LS       0.90E-01    4.9                    -7445.0952960454
   275 OT CG       0.90E-01   11.3     0.00019795     -7445.0952960660 -2.45E-02
   276 OT LS       0.91E-01    4.5                    -7445.1192831916
   277 OT CG       0.91E-01   11.4     0.00019589     -7445.1192856211 -2.40E-02
   278 OT LS       0.91E-01    4.5                    -7445.1428072830
   279 OT CG       0.91E-01   11.3     0.00019397     -7445.1428073141 -2.35E-02
   280 OT LS       0.91E-01    4.5                    -7445.1658669010
   281 OT CG       0.91E-01   11.3     0.00019238     -7445.1658669010 -2.31E-02
   282 OT LS       0.90E-01    4.5                    -7445.1883225007
   283 OT CG       0.90E-01   11.3     0.00019036     -7445.1883247499 -2.25E-02
   284 OT LS       0.90E-01    4.6                    -7445.2102900578
   285 OT CG       0.90E-01   11.3     0.00018842     -7445.2102900841 -2.20E-02
   286 OT LS       0.90E-01    4.5                    -7445.2317812928
   287 OT CG       0.90E-01   11.4     0.00018657     -7445.2317813424 -2.15E-02
   288 OT LS       0.90E-01    4.5                    -7445.2528535328
   289 OT CG       0.90E-01   11.3     0.00018459     -7445.2528535325 -2.11E-02
   290 OT LS       0.90E-01    4.5                    -7445.2735093595
   291 OT CG       0.90E-01   11.3     0.00018262     -7445.2735094038 -2.07E-02
   292 OT LS       0.90E-01    4.5                    -7445.2936718262
   293 OT CG       0.90E-01   11.4     0.00018037     -7445.2936719739 -2.02E-02
   294 OT LS       0.91E-01    4.5                    -7445.3135622599
   295 OT CG       0.91E-01   11.3     0.00017850     -7445.3135646944 -1.99E-02
   296 OT LS       0.91E-01    4.5                    -7445.3330589088
   297 OT CG       0.91E-01   11.3     0.00017708     -7445.3330589155 -1.95E-02
   298 OT LS       0.91E-01    4.5                    -7445.3522064260
   299 OT CG       0.91E-01   11.4     0.00017497     -7445.3522064936 -1.91E-02
   300 OT LS       0.91E-01    4.5                    -7445.3709689303
   301 OT CG       0.91E-01   11.3     0.00017303     -7445.3709691897 -1.88E-02
   302 OT LS       0.91E-01    4.5                    -7445.3893205214
   303 OT CG       0.91E-01   11.3     0.00017149     -7445.3893205214 -1.84E-02
   304 OT LS       0.91E-01    4.5                    -7445.4073138973
   305 OT CG       0.91E-01   11.4     0.00016988     -7445.4073139648 -1.80E-02
   306 OT LS       0.91E-01    6.3                    -7445.4249760285
   307 OT CG       0.91E-01   11.4     0.00016858     -7445.4249760313 -1.77E-02
   308 OT LS       0.90E-01    4.5                    -7445.4421951356
   309 OT CG       0.90E-01   11.3     0.00016690     -7445.4421968304 -1.72E-02
   310 OT LS       0.90E-01    4.5                    -7445.4590395418
   311 OT CG       0.90E-01   11.4     0.00016527     -7445.4590396301 -1.68E-02
   312 OT LS       0.90E-01    4.5                    -7445.4755923735
   313 OT CG       0.90E-01   11.3     0.00016353     -7445.4755924459 -1.66E-02
   314 OT LS       0.91E-01    4.8                    -7445.4919055753
   315 OT CG       0.91E-01   11.3     0.00016214     -7445.4919063090 -1.63E-02
   316 OT LS       0.91E-01    4.5                    -7445.5078898820
   317 OT CG       0.91E-01   11.4     0.00015991     -7445.5078900510 -1.60E-02
   318 OT LS       0.92E-01    4.5                    -7445.5235871756
   319 OT CG       0.92E-01   11.4     0.00015808     -7445.5235886293 -1.57E-02
   320 OT LS       0.92E-01    4.5                    -7445.5389600256
   321 OT CG       0.92E-01   11.4     0.00015671     -7445.5389600689 -1.54E-02
   322 OT LS       0.91E-01    4.5                    -7445.5540186904
   323 OT CG       0.91E-01   11.4     0.00015570     -7445.5540188332 -1.51E-02
   324 OT LS       0.91E-01    4.5                    -7445.5687709028
   325 OT CG       0.91E-01   11.4     0.00015401     -7445.5687717217 -1.48E-02
   326 OT LS       0.90E-01    4.5                    -7445.5831629644
   327 OT CG       0.90E-01   11.4     0.00015244     -7445.5831631001 -1.44E-02
   328 OT LS       0.90E-01    4.5                    -7445.5972714847
   329 OT CG       0.90E-01   11.6     0.00015067     -7445.5972714895 -1.41E-02
   330 OT LS       0.91E-01    4.5                    -7445.6111724097
   331 OT CG       0.91E-01   11.3     0.00014933     -7445.6111733885 -1.39E-02
   332 OT LS       0.91E-01    4.5                    -7445.6248286284
   333 OT CG       0.91E-01   11.4     0.00014801     -7445.6248286277 -1.37E-02
   334 OT LS       0.91E-01    4.5                    -7445.6382385719
   335 OT CG       0.91E-01   11.4     0.00014634     -7445.6382385722 -1.34E-02
   336 OT LS       0.91E-01    4.5                    -7445.6513553327
   337 OT CG       0.91E-01   11.3     0.00014506     -7445.6513553344 -1.31E-02
   338 OT LS       0.91E-01    4.5                    -7445.6642602090
   339 OT CG       0.91E-01   11.4     0.00014414     -7445.6642602245 -1.29E-02
   340 OT LS       0.91E-01    4.5                    -7445.6769107888
   341 OT CG       0.91E-01   11.4     0.00014294     -7445.6769114048 -1.27E-02
   342 OT LS       0.91E-01    4.5                    -7445.6893482762
   343 OT CG       0.91E-01   11.4     0.00014147     -7445.6893482780 -1.24E-02
   344 OT LS       0.91E-01    4.5                    -7445.7015261474
   345 OT CG       0.91E-01   11.4     0.00013978     -7445.7015261491 -1.22E-02
   346 OT LS       0.92E-01    4.5                    -7445.7135322202
   347 OT CG       0.92E-01   12.7     0.00013860     -7445.7135333429 -1.20E-02
   348 OT LS       0.92E-01    6.6                    -7445.7253728679
   349 OT CG       0.92E-01   11.7     0.00013745     -7445.7253729664 -1.18E-02
   350 OT LS       0.92E-01    4.5                    -7445.7370086685
   351 OT CG       0.92E-01   11.3     0.00013644     -7445.7370086717 -1.16E-02
   352 OT LS       0.91E-01    4.5                    -7445.7484138121
   353 OT CG       0.91E-01   11.3     0.00013513     -7445.7484141433 -1.14E-02
   354 OT LS       0.91E-01    4.5                    -7445.7595613091
   355 OT CG       0.91E-01   11.4     0.00013411     -7445.7595614619 -1.11E-02
   356 OT LS       0.91E-01    4.5                    -7445.7705435263
   357 OT CG       0.91E-01   11.4     0.00013304     -7445.7705435267 -1.10E-02
   358 OT LS       0.91E-01    4.5                    -7445.7813168329
   359 OT CG       0.91E-01   11.6     0.00013177     -7445.7813169355 -1.08E-02
   360 OT LS       0.91E-01    4.5                    -7445.7919313353
   361 OT CG       0.91E-01   11.3     0.00013055     -7445.7919315277 -1.06E-02
   362 OT LS       0.91E-01    4.5                    -7445.8023797509
   363 OT CG       0.91E-01   11.4     0.00012939     -7445.8023798260 -1.04E-02
   364 OT LS       0.92E-01    4.5                    -7445.8126896754
   365 OT CG       0.92E-01   11.4     0.00012873     -7445.8126898893 -1.03E-02
   366 OT LS       0.91E-01    4.5                    -7445.8228221601
   367 OT CG       0.91E-01   11.4     0.00012780     -7445.8228226846 -1.01E-02
   368 OT LS       0.91E-01    4.5                    -7445.8327740780
   369 OT CG       0.91E-01   11.4     0.00012667     -7445.8327742010 -9.95E-03
   370 OT LS       0.91E-01    4.5                    -7445.8425878969
   371 OT CG       0.91E-01   11.3     0.00012551     -7445.8425880358 -9.81E-03
   372 OT LS       0.91E-01    4.5                    -7445.8522205248
   373 OT CG       0.91E-01   11.4     0.00012472     -7445.8522205259 -9.63E-03
   374 OT LS       0.92E-01    4.5                    -7445.8617685041
   375 OT CG       0.92E-01   11.5     0.00012364     -7445.8617686428 -9.55E-03
   376 OT LS       0.92E-01    4.5                    -7445.8711534975
   377 OT CG       0.92E-01   11.3     0.00012263     -7445.8711534979 -9.38E-03
   378 OT LS       0.91E-01    4.5                    -7445.8803816511
   379 OT CG       0.91E-01   11.3     0.00012165     -7445.8803816550 -9.23E-03
   380 OT LS       0.91E-01    4.7                    -7445.8894574837
   381 OT CG       0.91E-01   11.5     0.00012059     -7445.8894574876 -9.08E-03
   382 OT LS       0.92E-01    4.5                    -7445.8984087716
   383 OT CG       0.92E-01   11.3     0.00011987     -7445.8984088952 -8.95E-03
   384 OT LS       0.91E-01    4.5                    -7445.9072111766
   385 OT CG       0.91E-01   11.3     0.00011881     -7445.9072113760 -8.80E-03
   386 OT LS       0.91E-01    4.5                    -7445.9158763091
   387 OT CG       0.91E-01   11.4     0.00011788     -7445.9158763423 -8.66E-03
   388 OT LS       0.92E-01    4.5                    -7445.9244186618
   389 OT CG       0.92E-01   11.5     0.00011707     -7445.9244186773 -8.54E-03
   390 OT LS       0.91E-01    4.5                    -7445.9328239266
   391 OT CG       0.91E-01   11.3     0.00011638     -7445.9328239730 -8.41E-03
   392 OT LS       0.92E-01    4.5                    -7445.9411484308
   393 OT CG       0.92E-01   11.3     0.00011551     -7445.9411484677 -8.32E-03
   394 OT LS       0.92E-01    4.5                    -7445.9493403544
   395 OT CG       0.92E-01   11.4     0.00011451     -7445.9493403639 -8.19E-03
   396 OT LS       0.92E-01    4.5                    -7445.9574284449
   397 OT CG       0.92E-01   11.4     0.00011377     -7445.9574286175 -8.09E-03
   398 OT LS       0.92E-01    4.5                    -7445.9654143750
   399 OT CG       0.92E-01   11.3     0.00011289     -7445.9654143750 -7.99E-03
   400 OT LS       0.92E-01    4.5                    -7445.9732707287
   401 OT CG       0.92E-01   11.3     0.00011237     -7445.9732707346 -7.86E-03
   402 OT LS       0.91E-01    4.5                    -7445.9810034488
   403 OT CG       0.91E-01   11.3     0.00011150     -7445.9810037863 -7.73E-03
   404 OT LS       0.91E-01    4.5                    -7445.9886181909
   405 OT CG       0.91E-01   11.4     0.00011071     -7445.9886181912 -7.61E-03
   406 OT LS       0.91E-01    4.5                    -7445.9961220014
   407 OT CG       0.91E-01   11.4     0.00010994     -7445.9961220043 -7.50E-03
   408 OT LS       0.91E-01    4.5                    -7446.0035083806
   409 OT CG       0.91E-01   11.4     0.00010927     -7446.0035084042 -7.39E-03
   410 OT LS       0.91E-01    4.5                    -7446.0108076943
   411 OT CG       0.91E-01   11.3     0.00010821     -7446.0108076950 -7.30E-03
   412 OT LS       0.91E-01    4.5                    -7446.0179771433
   413 OT CG       0.91E-01   11.4     0.00010750     -7446.0179771618 -7.17E-03
   414 OT LS       0.92E-01    4.5                    -7446.0250831313
   415 OT CG       0.92E-01   11.3     0.00010640     -7446.0250832557 -7.11E-03
   416 OT LS       0.92E-01    4.5                    -7446.0320947966
   417 OT CG       0.92E-01   11.3     0.00010570     -7446.0320951486 -7.01E-03
   418 OT LS       0.92E-01    4.5                    -7446.0390093250
   419 OT CG       0.92E-01   11.4     0.00010512     -7446.0390093293 -6.91E-03
   420 OT LS       0.92E-01    4.6                    -7446.0457915138
   421 OT CG       0.92E-01   12.1     0.00010420     -7446.0457919679 -6.78E-03
   422 OT LS       0.92E-01    5.6                    -7446.0524795233
   423 OT CG       0.92E-01   12.2     0.00010340     -7446.0524796049 -6.69E-03
   424 OT LS       0.92E-01    4.5                    -7446.0590465094
   425 OT CG       0.92E-01   11.4     0.00010263     -7446.0590465659 -6.57E-03
   426 OT LS       0.92E-01    4.5                    -7446.0655138170
   427 OT CG       0.92E-01   11.4     0.00010210     -7446.0655138181 -6.47E-03
   428 OT LS       0.91E-01    4.5                    -7446.0718786004
   429 OT CG       0.91E-01   11.4     0.00010133     -7446.0718788024 -6.36E-03
   430 OT LS       0.91E-01    4.5                    -7446.0781615241
   431 OT CG       0.91E-01   11.3     0.00010061     -7446.0781615551 -6.28E-03
   432 OT LS       0.91E-01    4.5                    -7446.0843495543
   433 OT CG       0.91E-01   11.3     0.00009989     -7446.0843495595 -6.19E-03
   434 OT LS       0.91E-01    4.5                    -7446.0904742253
   435 OT CG       0.91E-01   11.5     0.00009903     -7446.0904743165 -6.12E-03
   436 OT LS       0.92E-01    4.5                    -7446.0965373565
   437 OT CG       0.92E-01   11.3     0.00009818     -7446.0965376843 -6.06E-03
   438 OT LS       0.92E-01    4.5                    -7446.1025134428
   439 OT CG       0.92E-01   11.3     0.00009747     -7446.1025134838 -5.98E-03
   440 OT LS       0.92E-01    4.5                    -7446.1083974644
   441 OT CG       0.92E-01   11.3     0.00009676     -7446.1083974694 -5.88E-03
   442 OT LS       0.92E-01    4.5                    -7446.1141724391
   443 OT CG       0.92E-01   11.3     0.00009638     -7446.1141725431 -5.78E-03
   444 OT LS       0.91E-01    4.5                    -7446.1198641203
   445 OT CG       0.91E-01   11.3     0.00009579     -7446.1198643776 -5.69E-03
   446 OT LS       0.91E-01    4.5                    -7446.1254580142
   447 OT CG       0.91E-01   11.4     0.00009515     -7446.1254581510 -5.59E-03
   448 OT LS       0.91E-01    4.5                    -7446.1309853423
   449 OT CG       0.91E-01   11.3     0.00009440     -7446.1309853524 -5.53E-03
   450 OT LS       0.92E-01    4.5                    -7446.1364603325
   451 OT CG       0.92E-01   11.4     0.00009356     -7446.1364605456 -5.48E-03
   452 OT LS       0.92E-01    4.5                    -7446.1418616218
   453 OT CG       0.92E-01   11.4     0.00009306     -7446.1418617170 -5.40E-03
   454 OT LS       0.92E-01    4.5                    -7446.1472118725
   455 OT CG       0.92E-01   12.7     0.00009232     -7446.1472118831 -5.35E-03
   456 OT LS       0.92E-01    4.5                    -7446.1524811313
   457 OT CG       0.92E-01   11.4     0.00009181     -7446.1524811331 -5.27E-03
   458 OT LS       0.92E-01    4.5                    -7446.1576679742
   459 OT CG       0.92E-01   11.3     0.00009128     -7446.1576680870 -5.19E-03
   460 OT LS       0.92E-01    4.5                    -7446.1627891274
   461 OT CG       0.92E-01   11.3     0.00009076     -7446.1627891343 -5.12E-03
   462 OT LS       0.92E-01    4.5                    -7446.1678550452
   463 OT CG       0.92E-01   11.4     0.00009010     -7446.1678550470 -5.07E-03
   464 OT LS       0.92E-01    4.5                    -7446.1728597335
   465 OT CG       0.92E-01   11.5     0.00008951     -7446.1728597615 -5.00E-03
   466 OT LS       0.92E-01    4.5                    -7446.1778102060
   467 OT CG       0.92E-01   11.4     0.00008902     -7446.1778102285 -4.95E-03
   468 OT LS       0.92E-01    4.5                    -7446.1826939248
   469 OT CG       0.92E-01   11.4     0.00008862     -7446.1826939559 -4.88E-03
   470 OT LS       0.92E-01    4.5                    -7446.1875366102
   471 OT CG       0.92E-01   11.4     0.00008814     -7446.1875366117 -4.84E-03
   472 OT LS       0.92E-01    4.5                    -7446.1923150802
   473 OT CG       0.92E-01   11.4     0.00008760     -7446.1923151110 -4.78E-03
   474 OT LS       0.92E-01    4.5                    -7446.1970424847
   475 OT CG       0.92E-01   11.4     0.00008703     -7446.1970424935 -4.73E-03
   476 OT LS       0.92E-01    4.5                    -7446.2017210226
   477 OT CG       0.92E-01   11.3     0.00008642     -7446.2017210536 -4.68E-03
   478 OT LS       0.93E-01    4.5                    -7446.2063562925
   479 OT CG       0.93E-01   11.3     0.00008595     -7446.2063564004 -4.64E-03
   480 OT LS       0.92E-01    4.5                    -7446.2109204683
   481 OT CG       0.92E-01   11.4     0.00008545     -7446.2109205600 -4.56E-03
   482 OT LS       0.92E-01    4.5                    -7446.2154292947
   483 OT CG       0.92E-01   11.3     0.00008495     -7446.2154292965 -4.51E-03
   484 OT LS       0.92E-01    4.5                    -7446.2198721787
   485 OT CG       0.92E-01   11.4     0.00008451     -7446.2198722241 -4.44E-03
   486 OT LS       0.92E-01    4.5                    -7446.2242609399
   487 OT CG       0.92E-01   11.4     0.00008416     -7446.2242609518 -4.39E-03
   488 OT LS       0.91E-01    4.5                    -7446.2285814824
   489 OT CG       0.91E-01   11.4     0.00008344     -7446.2285817183 -4.32E-03
   490 OT LS       0.92E-01    4.5                    -7446.2328557861
   491 OT CG       0.92E-01   11.4     0.00008290     -7446.2328559564 -4.27E-03
   492 OT LS       0.92E-01    4.5                    -7446.2370877096
   493 OT CG       0.92E-01   11.4     0.00008240     -7446.2370877421 -4.23E-03
   494 OT LS       0.92E-01    4.5                    -7446.2412653032
   495 OT CG       0.92E-01   11.4     0.00008197     -7446.2412653048 -4.18E-03
   496 OT LS       0.92E-01    4.7                    -7446.2454084347
   497 OT CG       0.92E-01   14.2     0.00008132     -7446.2454084522 -4.14E-03
   498 OT LS       0.92E-01    4.9                    -7446.2494908411
   499 OT CG       0.92E-01   11.4     0.00008083     -7446.2494908459 -4.08E-03
   500 OT LS       0.92E-01    4.5                    -7446.2535183427

  Leaving inner SCF loop after reaching   500 steps.


  Electronic density on regular grids:      -3295.9999971136        0.0000028864
  Core density on regular grids:             3295.9999997996       -0.0000002004
  Total charge density on r-space grids:        0.0000026859
  Total charge density g-space grids:           0.0000026859

  Overlap energy of the core charge distribution:               0.00000899735383
  Self energy of the core charge distribution:             -19161.94884904004721
  Core Hamiltonian energy:                                   5437.77908221736288
  Hartree energy:                                            8016.02110455235288
  Exchange-correlation energy:                              -1735.96921914346035
  Dispersion energy:                                           -2.13564592628923

  Total energy:                                             -7446.25351834272624

  outer SCF iter =    1 RMS gradient =   0.81E-04 energy =      -7446.2535183427

  ----------------------------------- OT ---------------------------------------
  Minimizer      : CG                  : conjugate gradient
  Preconditioner : FULL_ALL            : diagonalization, state selective
  Precond_solver : DEFAULT
  Line search    : 2PNT                : 2 energies, one gradient
  stepsize       :    0.15000000                  energy_gap     :    0.00100000
  eps_taylor     :   0.10000E-15                  max_taylor     :             4
  ----------------------------------- OT ---------------------------------------

  Step     Update method      Time    Convergence         Total energy    Change
  ------------------------------------------------------------------------------
     1 OT CG       0.15E+00   47.7     0.00055034     -7446.2535183532 -4.03E-03
     2 OT LS       0.25E+00    4.5                    -7446.6786562762
     3 OT CG       0.25E+00   11.4     0.00004374     -7446.7568987162 -5.03E-01
     4 OT LS       0.66E-01    4.5                    -7446.7513484081
     5 OT CG       0.66E-01   11.4     0.00001537     -7446.7577581519 -8.59E-04
     6 OT LS       0.70E-01    4.5                    -7446.7578692739
     7 OT CG       0.70E-01   11.4     0.00000454     -7446.7578695616 -1.11E-04
     8 OT LS       0.12E+00    4.5                    -7446.7578831022
     9 OT CG       0.12E+00   11.4     0.00000204     -7446.7578857967 -1.62E-05
    10 OT LS       0.93E-01    4.5                    -7446.7578882269
    11 OT CG       0.93E-01   11.4     0.00000076     -7446.7578884051 -2.61E-06

  *** SCF run converged in    11 steps ***


  Electronic density on regular grids:      -3295.9999971139        0.0000028861
  Core density on regular grids:             3295.9999997996       -0.0000002004
  Total charge density on r-space grids:        0.0000026857
  Total charge density g-space grids:           0.0000026857

  Overlap energy of the core charge distribution:               0.00000899735383
  Self energy of the core charge distribution:             -19161.94884904004721
  Core Hamiltonian energy:                                   5437.34006058145314
  Hartree energy:                                            8016.06307440935052
  Exchange-correlation energy:                              -1736.07653742693128
  Dispersion energy:                                           -2.13564592628923

  Total energy:                                             -7446.75788840510904

  outer SCF iter =    2 RMS gradient =   0.76E-06 energy =      -7446.7578884051
  outer SCF loop converged in   2 iterations or  511 steps


 ENERGY| Total FORCE_EVAL ( QS ) energy [a.u.]:            -7446.757888801253102

 ATOMIC FORCES in [a.u.]

 # Atom   Kind   Element          X              Y              Z
      1      1      Ti          0.00000000     0.00000000     0.00000000
      2      2      Si          0.00000000     0.00000000     0.00000000
      3      2      Si          0.00000000     0.00000000     0.00000000
      4      2      Si          0.00000000     0.00000000     0.00000000
      5      2      Si          0.00000000     0.00000000     0.00000000
      6      2      Si          0.00000000     0.00000000     0.00000000
      7      2      Si          0.00000000     0.00000000     0.00000000
      8      2      Si          0.00000000     0.00000000     0.00000000
      9      2      Si          0.00000000     0.00000000     0.00000000
     10      2      Si          0.00000000     0.00000000     0.00000000
     11      2      Si          0.00000000     0.00000000     0.00000000
     12      2      Si          0.00000000     0.00000000     0.00000000
     13      2      Si          0.00000000     0.00000000     0.00000000
     14      2      Si          0.00000000     0.00000000     0.00000000
     15      2      Si          0.00000000     0.00000000     0.00000000
     16      2      Si          0.00000000     0.00000000     0.00000000
     17      2      Si          0.00000000     0.00000000     0.00000000
     18      2      Si          0.00000000     0.00000000     0.00000000
     19      2      Si          0.00000000     0.00000000     0.00000000
     20      2      Si          0.00000000     0.00000000     0.00000000
     21      2      Si          0.00000000     0.00000000     0.00000000
     22      2      Si          0.00000000     0.00000000     0.00000000
     23      2      Si          0.00000000     0.00000000     0.00000000
     24      2      Si          0.00000000     0.00000000     0.00000000
     25      2      Si          0.00000000     0.00000000     0.00000000
     26      2      Si          0.00000000     0.00000000     0.00000000
     27      2      Si          0.00000000     0.00000000     0.00000000
     28      2      Si          0.00000000     0.00000000     0.00000000
     29      2      Si          0.00000000     0.00000000     0.00000000
     30      2      Si          0.00000000     0.00000000     0.00000000
     31      2      Si          0.00000000     0.00000000     0.00000000
     32      2      Si          0.00000000     0.00000000     0.00000000
     33      2      Si          0.00000000     0.00000000     0.00000000
     34      2      Si          0.00000000     0.00000000     0.00000000
     35      2      Si          0.00000000     0.00000000     0.00000000
     36      2      Si          0.00000000     0.00000000     0.00000000
     37      2      Si          0.00000000     0.00000000     0.00000000
     38      2      Si          0.00000000     0.00000000     0.00000000
     39      2      Si          0.00000000     0.00000000     0.00000000
     40      2      Si          0.00000000     0.00000000     0.00000000
     41      2      Si          0.00000000     0.00000000     0.00000000
     42      2      Si          0.00000000     0.00000000     0.00000000
     43      2      Si          0.00000000     0.00000000     0.00000000
     44      2      Si          0.00000000     0.00000000     0.00000000
     45      2      Si          0.00000000     0.00000000     0.00000000
     46      2      Si          0.00000000     0.00000000     0.00000000
     47      2      Si          0.00000000     0.00000000     0.00000000
     48      2      Si          0.00000000     0.00000000     0.00000000
     49      2      Si          0.00000000     0.00000000     0.00000000
     50      2      Si          0.00000000     0.00000000     0.00000000
     51      2      Si          0.00000000     0.00000000     0.00000000
     52      2      Si          0.00000000     0.00000000     0.00000000
     53      2      Si          0.00000000     0.00000000     0.00000000
     54      2      Si          0.00000000     0.00000000     0.00000000
     55      2      Si          0.00000000     0.00000000     0.00000000
     56      2      Si          0.00000000     0.00000000     0.00000000
     57      2      Si          0.00000000     0.00000000     0.00000000
     58      2      Si          0.00000000     0.00000000     0.00000000
     59      2      Si          0.00000000     0.00000000     0.00000000
     60      2      Si          0.00000000     0.00000000     0.00000000
     61      2      Si          0.00000000     0.00000000     0.00000000
     62      2      Si          0.00000000     0.00000000     0.00000000
     63      2      Si          0.00000000     0.00000000     0.00000000
     64      2      Si          0.00000000     0.00000000     0.00000000
     65      2      Si          0.00000000     0.00000000     0.00000000
     66      2      Si          0.00000000     0.00000000     0.00000000
     67      2      Si          0.00000000     0.00000000     0.00000000
     68      2      Si          0.00000000     0.00000000     0.00000000
     69      2      Si          0.00000000     0.00000000     0.00000000
     70      2      Si          0.00000000     0.00000000     0.00000000
     71      2      Si          0.00000000     0.00000000     0.00000000
     72      2      Si          0.00000000     0.00000000     0.00000000
     73      2      Si          0.00000000     0.00000000     0.00000000
     74      2      Si          0.00000000     0.00000000     0.00000000
     75      2      Si          0.00000000     0.00000000     0.00000000
     76      2      Si          0.00000000     0.00000000     0.00000000
     77      2      Si          0.00000000     0.00000000     0.00000000
     78      2      Si          0.00000000     0.00000000     0.00000000
     79      2      Si          0.00000000     0.00000000     0.00000000
     80      2      Si          0.00000000     0.00000000     0.00000000
     81      2      Si          0.00000000     0.00000000     0.00000000
     82      2      Si          0.00000000     0.00000000     0.00000000
     83      2      Si          0.00000000     0.00000000     0.00000000
     84      2      Si          0.00000000     0.00000000     0.00000000
     85      2      Si          0.00000000     0.00000000     0.00000000
     86      2      Si          0.00000000     0.00000000     0.00000000
     87      2      Si          0.00000000     0.00000000     0.00000000
     88      2      Si          0.00000000     0.00000000     0.00000000
     89      2      Si          0.00000000     0.00000000     0.00000000
     90      2      Si          0.00000000     0.00000000     0.00000000
     91      2      Si          0.00000000     0.00000000     0.00000000
     92      2      Si          0.00000000     0.00000000     0.00000000
     93      2      Si          0.00000000     0.00000000     0.00000000
     94      2      Si          0.00000000     0.00000000     0.00000000
     95      2      Si          0.00000000     0.00000000     0.00000000
     96      2      Si          0.00000000     0.00000000     0.00000000
     97      2      Si          0.00000000     0.00000000     0.00000000
     98      2      Si          0.00000000     0.00000000     0.00000000
     99      2      Si          0.00000000     0.00000000     0.00000000
    100      2      Si          0.00000000     0.00000000     0.00000000
    101      2      Si          0.00000000     0.00000000     0.00000000
    102      2      Si          0.00000000     0.00000000     0.00000000
    103      2      Si          0.00000000     0.00000000     0.00000000
    104      2      Si          0.00000000     0.00000000     0.00000000
    105      2      Si          0.00000000     0.00000000     0.00000000
    106      2      Si          0.00000000     0.00000000     0.00000000
    107      2      Si          0.00000000     0.00000000     0.00000000
    108      2      Si          0.00000000     0.00000000     0.00000000
    109      2      Si          0.00000000     0.00000000     0.00000000
    110      2      Si          0.00000000     0.00000000     0.00000000
    111      2      Si          0.00000000     0.00000000     0.00000000
    112      2      Si          0.00000000     0.00000000     0.00000000
    113      2      Si          0.00000000     0.00000000     0.00000000
    114      2      Si          0.00000000     0.00000000     0.00000000
    115      2      Si          0.00000000     0.00000000     0.00000000
    116      2      Si          0.00000000     0.00000000     0.00000000
    117      2      Si          0.00000000     0.00000000     0.00000000
    118      2      Si          0.00000000     0.00000000     0.00000000
    119      2      Si          0.00000000     0.00000000     0.00000000
    120      2      Si          0.00000000     0.00000000     0.00000000
    121      2      Si          0.00000000     0.00000000     0.00000000
    122      2      Si          0.00000000     0.00000000     0.00000000
    123      2      Si          0.00000000     0.00000000     0.00000000
    124      2      Si          0.00000000     0.00000000     0.00000000
    125      2      Si          0.00000000     0.00000000     0.00000000
    126      2      Si          0.00000000     0.00000000     0.00000000
    127      2      Si          0.00000000     0.00000000     0.00000000
    128      2      Si          0.00000000     0.00000000     0.00000000
    129      2      Si          0.00000000     0.00000000     0.00000000
    130      2      Si          0.00000000     0.00000000     0.00000000
    131      2      Si          0.00000000     0.00000000     0.00000000
    132      2      Si          0.00000000     0.00000000     0.00000000
    133      2      Si          0.00000000     0.00000000     0.00000000
    134      2      Si          0.00000000     0.00000000     0.00000000
    135      2      Si          0.00000000     0.00000000     0.00000000
    136      2      Si          0.00000000     0.00000000     0.00000000
    137      2      Si          0.00000000     0.00000000     0.00000000
    138      2      Si          0.00000000     0.00000000     0.00000000
    139      2      Si          0.00000000     0.00000000     0.00000000
    140      2      Si          0.00000000     0.00000000     0.00000000
    141      2      Si          0.00000000     0.00000000     0.00000000
    142      2      Si          0.00000000     0.00000000     0.00000000
    143      2      Si          0.00000000     0.00000000     0.00000000
    144      2      Si          0.00000000     0.00000000     0.00000000
    145      2      Si          0.00000000     0.00000000     0.00000000
    146      2      Si          0.00000000     0.00000000     0.00000000
    147      2      Si          0.00000000     0.00000000     0.00000000
    148      2      Si          0.00000000     0.00000000     0.00000000
    149      2      Si          0.00000000     0.00000000     0.00000000
    150      2      Si          0.00000000     0.00000000     0.00000000
    151      2      Si          0.00000000     0.00000000     0.00000000
    152      2      Si          0.00000000     0.00000000     0.00000000
    153      2      Si          0.00000000     0.00000000     0.00000000
    154      2      Si          0.00000000     0.00000000     0.00000000
    155      2      Si          0.00000000     0.00000000     0.00000000
    156      2      Si          0.00000000     0.00000000     0.00000000
    157      2      Si          0.00000000     0.00000000     0.00000000
    158      2      Si          0.00000000     0.00000000     0.00000000
    159      2      Si          0.00000000     0.00000000     0.00000000
    160      2      Si          0.00000000     0.00000000     0.00000000
    161      2      Si          0.00000000     0.00000000     0.00000000
    162      2      Si          0.00000000     0.00000000     0.00000000
    163      2      Si          0.00000000     0.00000000     0.00000000
    164      2      Si          0.00000000     0.00000000     0.00000000
    165      2      Si          0.00000000     0.00000000     0.00000000
    166      2      Si          0.00000000     0.00000000     0.00000000
    167      2      Si          0.00000000     0.00000000     0.00000000
    168      2      Si          0.00000000     0.00000000     0.00000000
    169      2      Si          0.00000000     0.00000000     0.00000000
    170      2      Si          0.00000000     0.00000000     0.00000000
    171      2      Si          0.00000000     0.00000000     0.00000000
    172      2      Si          0.00000000     0.00000000     0.00000000
    173      2      Si          0.00000000     0.00000000     0.00000000
    174      2      Si          0.00000000     0.00000000     0.00000000
    175      2      Si          0.00000000     0.00000000     0.00000000
    176      2      Si          0.00000000     0.00000000     0.00000000
    177      2      Si          0.00000000     0.00000000     0.00000000
    178      2      Si          0.00000000     0.00000000     0.00000000
    179      2      Si          0.00000000     0.00000000     0.00000000
    180      2      Si          0.00000000     0.00000000     0.00000000
    181      2      Si          0.00000000     0.00000000     0.00000000
    182      2      Si          0.00000000     0.00000000     0.00000000
    183      2      Si          0.00000000     0.00000000     0.00000000
    184      2      Si          0.00000000     0.00000000     0.00000000
    185      2      Si          0.00000000     0.00000000     0.00000000
    186      2      Si          0.00000000     0.00000000     0.00000000
    187      2      Si          0.00000000     0.00000000     0.00000000
    188      2      Si          0.00000000     0.00000000     0.00000000
    189      2      Si          0.00000000     0.00000000     0.00000000
    190      2      Si          0.00000000     0.00000000     0.00000000
    191      2      Si          0.00000000     0.00000000     0.00000000
    192      3      O           0.00000000     0.00000000     0.00000000
    193      3      O           0.00000000     0.00000000     0.00000000
    194      3      O           0.00000000     0.00000000     0.00000000
    195      3      O           0.00000000     0.00000000     0.00000000
    196      3      O           0.00000000     0.00000000     0.00000000
    197      3      O           0.00000000     0.00000000     0.00000000
    198      3      O           0.00000000     0.00000000     0.00000000
    199      3      O           0.00000000     0.00000000     0.00000000
    200      3      O           0.00000000     0.00000000     0.00000000
    201      3      O           0.00000000     0.00000000     0.00000000
    202      3      O           0.00000000     0.00000000     0.00000000
    203      3      O           0.00000000     0.00000000     0.00000000
    204      3      O           0.00000000     0.00000000     0.00000000
    205      3      O           0.00000000     0.00000000     0.00000000
    206      3      O           0.00000000     0.00000000     0.00000000
    207      3      O           0.00000000     0.00000000     0.00000000
    208      3      O           0.00000000     0.00000000     0.00000000
    209      3      O           0.00000000     0.00000000     0.00000000
    210      3      O           0.00000000     0.00000000     0.00000000
    211      3      O           0.00000000     0.00000000     0.00000000
    212      3      O           0.00000000     0.00000000     0.00000000
    213      3      O           0.00000000     0.00000000     0.00000000
    214      3      O           0.00000000     0.00000000     0.00000000
    215      3      O           0.00000000     0.00000000     0.00000000
    216      3      O           0.00000000     0.00000000     0.00000000
    217      3      O           0.00000000     0.00000000     0.00000000
    218      3      O           0.00000000     0.00000000     0.00000000
    219      3      O           0.00000000     0.00000000     0.00000000
    220      3      O           0.00000000     0.00000000     0.00000000
    221      3      O           0.00000000     0.00000000     0.00000000
    222      3      O           0.00000000     0.00000000     0.00000000
    223      3      O           0.00000000     0.00000000     0.00000000
    224      3      O           0.00000000     0.00000000     0.00000000
    225      3      O           0.00000000     0.00000000     0.00000000
    226      3      O           0.00000000     0.00000000     0.00000000
    227      3      O           0.00000000     0.00000000     0.00000000
    228      3      O           0.00000000     0.00000000     0.00000000
    229      3      O           0.00000000     0.00000000     0.00000000
    230      3      O           0.00000000     0.00000000     0.00000000
    231      3      O           0.00000000     0.00000000     0.00000000
    232      3      O           0.00000000     0.00000000     0.00000000
    233      3      O           0.00000000     0.00000000     0.00000000
    234      3      O           0.00000000     0.00000000     0.00000000
    235      3      O           0.00000000     0.00000000     0.00000000
    236      3      O           0.00000000     0.00000000     0.00000000
    237      3      O           0.00000000     0.00000000     0.00000000
    238      3      O           0.00000000     0.00000000     0.00000000
    239      3      O           0.00000000     0.00000000     0.00000000
    240      3      O           0.00000000     0.00000000     0.00000000
    241      3      O           0.00000000     0.00000000     0.00000000
    242      3      O           0.00000000     0.00000000     0.00000000
    243      3      O           0.00000000     0.00000000     0.00000000
    244      3      O           0.00000000     0.00000000     0.00000000
    245      3      O           0.00000000     0.00000000     0.00000000
    246      3      O           0.00000000     0.00000000     0.00000000
    247      3      O           0.00000000     0.00000000     0.00000000
    248      3      O           0.00000000     0.00000000     0.00000000
    249      3      O           0.00000000     0.00000000     0.00000000
    250      3      O           0.00000000     0.00000000     0.00000000
    251      3      O           0.00000000     0.00000000     0.00000000
    252      3      O           0.00000000     0.00000000     0.00000000
    253      3      O           0.00000000     0.00000000     0.00000000
    254      3      O           0.00000000     0.00000000     0.00000000
    255      3      O           0.00000000     0.00000000     0.00000000
    256      3      O           0.00000000     0.00000000     0.00000000
    257      3      O           0.00000000     0.00000000     0.00000000
    258      3      O           0.00000000     0.00000000     0.00000000
    259      3      O           0.00000000     0.00000000     0.00000000
    260      3      O           0.00000000     0.00000000     0.00000000
    261      3      O           0.00000000     0.00000000     0.00000000
    262      3      O           0.00000000     0.00000000     0.00000000
    263      3      O           0.00000000     0.00000000     0.00000000
    264      3      O           0.00000000     0.00000000     0.00000000
    265      3      O           0.00000000     0.00000000     0.00000000
    266      3      O           0.00000000     0.00000000     0.00000000
    267      3      O           0.00000000     0.00000000     0.00000000
    268      3      O           0.00000000     0.00000000     0.00000000
    269      3      O           0.00000000     0.00000000     0.00000000
    270      3      O           0.00000000     0.00000000     0.00000000
    271      3      O           0.00000000     0.00000000     0.00000000
    272      3      O           0.00000000     0.00000000     0.00000000
    273      3      O           0.00000000     0.00000000     0.00000000
    274      3      O           0.00000000     0.00000000     0.00000000
    275      3      O           0.00000000     0.00000000     0.00000000
    276      3      O           0.00000000     0.00000000     0.00000000
    277      3      O           0.00000000     0.00000000     0.00000000
    278      3      O           0.00000000     0.00000000     0.00000000
    279      3      O           0.00000000     0.00000000     0.00000000
    280      3      O           0.00000000     0.00000000     0.00000000
    281      3      O           0.00000000     0.00000000     0.00000000
    282      3      O           0.00000000     0.00000000     0.00000000
    283      3      O           0.00000000     0.00000000     0.00000000
    284      3      O           0.00000000     0.00000000     0.00000000
    285      3      O           0.00000000     0.00000000     0.00000000
    286      3      O           0.00000000     0.00000000     0.00000000
    287      3      O           0.00000000     0.00000000     0.00000000
    288      3      O           0.00000000     0.00000000     0.00000000
    289      3      O           0.00000000     0.00000000     0.00000000
    290      3      O           0.00000000     0.00000000     0.00000000
    291      3      O           0.00000000     0.00000000     0.00000000
    292      3      O           0.00000000     0.00000000     0.00000000
    293      3      O           0.00000000     0.00000000     0.00000000
    294      3      O           0.00000000     0.00000000     0.00000000
    295      3      O           0.00000000     0.00000000     0.00000000
    296      3      O           0.00000000     0.00000000     0.00000000
    297      3      O           0.00000000     0.00000000     0.00000000
    298      3      O           0.00000000     0.00000000     0.00000000
    299      3      O           0.00000000     0.00000000     0.00000000
    300      3      O           0.00000000     0.00000000     0.00000000
    301      3      O           0.00000000     0.00000000     0.00000000
    302      3      O           0.00000000     0.00000000     0.00000000
    303      3      O           0.00000000     0.00000000     0.00000000
    304      3      O           0.00000000     0.00000000     0.00000000
    305      3      O           0.00000000     0.00000000     0.00000000
    306      3      O           0.00000000     0.00000000     0.00000000
    307      3      O           0.00000000     0.00000000     0.00000000
    308      3      O           0.00000000     0.00000000     0.00000000
    309      3      O           0.00000000     0.00000000     0.00000000
    310      3      O           0.00000000     0.00000000     0.00000000
    311      3      O           0.00000000     0.00000000     0.00000000
    312      3      O           0.00000000     0.00000000     0.00000000
    313      3      O           0.00000000     0.00000000     0.00000000
    314      3      O           0.00000000     0.00000000     0.00000000
    315      3      O           0.00000000     0.00000000     0.00000000
    316      3      O           0.00000000     0.00000000     0.00000000
    317      3      O           0.00000000     0.00000000     0.00000000
    318      3      O           0.00000000     0.00000000     0.00000000
    319      3      O           0.00000000     0.00000000     0.00000000
    320      3      O           0.00000000     0.00000000     0.00000000
    321      3      O           0.00000000     0.00000000     0.00000000
    322      3      O           0.00000000     0.00000000     0.00000000
    323      3      O           0.00000000     0.00000000     0.00000000
    324      3      O           0.00000000     0.00000000     0.00000000
    325      3      O           0.00000000     0.00000000     0.00000000
    326      3      O           0.00000000     0.00000000     0.00000000
    327      3      O           0.00000000     0.00000000     0.00000000
    328      3      O           0.00000000     0.00000000     0.00000000
    329      3      O           0.00000000     0.00000000     0.00000000
    330      3      O           0.00000000     0.00000000     0.00000000
    331      3      O           0.00000000     0.00000000     0.00000000
    332      3      O           0.00000000     0.00000000     0.00000000
    333      3      O           0.00000000     0.00000000     0.00000000
    334      3      O           0.00000000     0.00000000     0.00000000
    335      3      O           0.00000000     0.00000000     0.00000000
    336      3      O           0.00000000     0.00000000     0.00000000
    337      3      O           0.00000000     0.00000000     0.00000000
    338      3      O           0.00000000     0.00000000     0.00000000
    339      3      O           0.00000000     0.00000000     0.00000000
    340      3      O           0.00000000     0.00000000     0.00000000
    341      3      O           0.00000000     0.00000000     0.00000000
    342      3      O           0.00000000     0.00000000     0.00000000
    343      3      O           0.00000000     0.00000000     0.00000000
    344      3      O           0.00000000     0.00000000     0.00000000
    345      3      O           0.00000000     0.00000000     0.00000000
    346      3      O           0.00000000     0.00000000     0.00000000
    347      3      O           0.00000000     0.00000000     0.00000000
    348      3      O           0.00000000     0.00000000     0.00000000
    349      3      O           0.00000000     0.00000000     0.00000000
    350      3      O           0.00000000     0.00000000     0.00000000
    351      3      O           0.00000000     0.00000000     0.00000000
    352      3      O           0.00000000     0.00000000     0.00000000
    353      3      O           0.00000000     0.00000000     0.00000000
    354      3      O           0.00000000     0.00000000     0.00000000
    355      3      O           0.00000000     0.00000000     0.00000000
    356      3      O           0.00000000     0.00000000     0.00000000
    357      3      O           0.00000000     0.00000000     0.00000000
    358      3      O           0.00000000     0.00000000     0.00000000
    359      3      O           0.00000000     0.00000000     0.00000000
    360      3      O           0.00000000     0.00000000     0.00000000
    361      3      O           0.00000000     0.00000000     0.00000000
    362      3      O           0.00000000     0.00000000     0.00000000
    363      3      O           0.00000000     0.00000000     0.00000000
    364      3      O           0.00000000     0.00000000     0.00000000
[...]
 flops  2038 x   288 x   144        4326744563712       0.0%    100.0%      0.0%
 flops  2028 x   288 x   667        4385007664128       0.0%    100.0%      0.0%
 flops  2028 x   288 x   683        4490195254272       0.0%    100.0%      0.0%
 flops  2038 x   272 x   160        4540410961920       0.0%    100.0%      0.0%
 flops  2028 x   288 x   160        4783904686080       0.0%    100.0%      0.0%
 flops   416 x   256 x   675        5437078732800       0.0%    100.0%      0.0%
 flops    13 x    32 x     5        5819931112320       0.0%    100.0%      0.0%
 flops     5 x    32 x    13        5819931112320       0.0%    100.0%      0.0%
 flops   416 x   288 x   667        6044219191296       0.0%    100.0%      0.0%
 flops  2028 x   256 x   128        6047800492032       0.0%    100.0%      0.0%
 flops   416 x   288 x   683        6189207957504       0.0%    100.0%      0.0%
 flops  2038 x   272 x   675        6317601091200       0.0%    100.0%      0.0%
 flops  2028 x   288 x   675        6656402188800       0.0%    100.0%      0.0%
 flops   416 x   288 x   128        7278560280576       0.0%    100.0%      0.0%
 flops  2038 x   256 x   667        7834008870912       0.0%    100.0%      0.0%
 flops  2038 x   256 x   683        8021931122688       0.0%    100.0%      0.0%
 flops    13 x    13 x   160        8286076868160       0.0%    100.0%      0.0%
 flops  2038 x   256 x   160        8546655928320       0.0%    100.0%      0.0%
 flops   416 x   288 x   675        9175070361600       0.0%    100.0%      0.0%
 flops  2038 x   272 x   128        9686210052096       0.0%    100.0%      0.0%
 flops  2028 x   288 x   128       10205663330304       0.0%    100.0%      0.0%
 flops  2038 x   256 x   675       11891954995200       0.0%    100.0%      0.0%
 flops  2038 x   288 x   667       13219889969664       0.0%    100.0%      0.0%
 flops  2038 x   288 x   683       13537008769536       0.0%    100.0%      0.0%
 flops  2038 x   288 x   160       14422481879040       0.0%    100.0%      0.0%
 flops    13 x    13 x   128       17676963985408       0.0%    100.0%      0.0%
 flops  2038 x   256 x   128       18232865980416       0.0%    100.0%      0.0%
 flops  2038 x   288 x   675       20067674054400       0.0%    100.0%      0.0%
 flops  2038 x   288 x   128       30767961341952       0.0%    100.0%      0.0%
 flops    13 x    32 x    13      109511021563008       0.0%    100.0%      0.0%
 flops inhomo. stacks             126399193985920     100.0%      0.0%      0.0%
 flops total                       610.760046E+12      20.7%     79.3%      0.0%
 flops max/rank                     26.745944E+12      20.7%     79.3%      0.0%
 matmuls inhomo. stacks                    364680     100.0%      0.0%      0.0%
 matmuls total                        14351063496       0.0%    100.0%      0.0%
 number of processed stacks              19628328       1.9%     98.1%      0.0%
 average stack size                                     1.0     745.0       0.0
 marketing flops                     1.029975E+15
 -------------------------------------------------------------------------------
 # multiplications                          11897
 max memory usage/rank             986.357760E+06
 # max total images/rank                        3
 # max 3D layers                                1
 # MPI messages exchanged                 5425032
 MPI messages size (bytes):
  total size                         9.731016E+12
  min size                           0.000000E+00
  max size                          11.266064E+06
  average size                       1.793725E+06
 MPI breakdown and total messages size (bytes):
             size <=      128               31164                        0
       128 < size <=     8192                   0                        0
      8192 < size <=    32768                1176                 38535168
     32768 < size <=   131072                 588                 23181312
    131072 < size <=  4194304             5166984            7244770333616
   4194304 < size <= 16777216              225120            2487281993280
  16777216 < size                               0                        0
 -------------------------------------------------------------------------------

 *** WARNING in dbcsr_mm.F:294 :: Using a non-square number of MPI ranks ***
 *** might lead to poor performance. Used ranks: 24 Suggested: 25 49     ***

 -------------------------------------------------------------------------------
 -                                                                             -
 -                      DBCSR MESSAGE PASSING PERFORMANCE                      -
 -                                                                             -
 -------------------------------------------------------------------------------
 ROUTINE             CALLS      AVE VOLUME [Bytes]
 MP_Bcast              124                     12.
 MP_Allreduce        60094                    118.
 MP_Alltoall         53228                 771819.
 MP_ISend           548004                 810644.
 MP_IRecv           539118                 816789.
 -------------------------------------------------------------------------------

 -------------------------------------------------------------------------------
 -                                                                             -
 -                                GRID STATISTICS                              -
 -                                                                             -
 -------------------------------------------------------------------------------
 LP    KERNEL             BACKEND                              COUNT     PERCENT
 4     collocate ortho    REF                              244962486      50.13%
 4     integrate ortho    REF                              122481243      25.07%
 3     collocate ortho    REF                               53023058      10.85%
 3     integrate ortho    REF                               26511529       5.43%
 7     integrate ortho    REF                               13706150       2.81%
 2     collocate ortho    REF                               13515054       2.77%
 2     integrate ortho    REF                                6757527       1.38%
 6     integrate ortho    REF                                2981888       0.61%
 5     collocate ortho    REF                                1526986       0.31%
 5     integrate ortho    REF                                1520241       0.31%
 0     collocate general  REF                                 761472       0.16%
 3     integrate general  REF                                 745608       0.15%
 8     integrate ortho    REF                                  85436       0.02%
 6     collocate ortho    REF                                  30240       0.01%
 9     integrate ortho    REF                                   1692       0.00%
 -------------------------------------------------------------------------------

 MEMORY| Estimated peak process memory [MiB]                                 941

 -------------------------------------------------------------------------------
 -                                                                             -
 -                         MESSAGE PASSING PERFORMANCE                         -
 -                                                                             -
 -------------------------------------------------------------------------------

 ROUTINE             CALLS      AVE VOLUME [Bytes]
 MP_Group                5
 MP_Bcast            35806                 236283.
 MP_Allreduce        95560                   1234.
 MP_Sync               709
 MP_Alltoall         14397               34002680.
 MP_SendRecv          4324                  16321.
 MP_ISendRecv        90183                 127093.
 MP_Wait            178083
 MP_ISend            78466                 804901.
 MP_IRecv            78466                 805067.
 MP_Recv              6291                1404146.
 -------------------------------------------------------------------------------


 -------------------------------------------------------------------------------
 -                                                                             -
 -                           R E F E R E N C E S                               -
 -                                                                             -
 -------------------------------------------------------------------------------
 
 CP2K version 9.1, the CP2K developers group (2021).
 CP2K is freely available from https://www.cp2k.org/ .

 Kuehne,Thomas D.; Iannuzzi,Marcella; Del Ben,Mauro;
 Rybkin,Vladimir V.; Seewald,Patrick; Stein,Frederick; Laino,Teodoro;
 Khaliullin,Rustam Z.; Schuett,Ole; Schiffmann,Florian; Golze,Dorothea;
 Wilhelm,Jan; Chulkov,Sergey; Bani-Hashemian,Mohammad Hossein;
 Weber,Valery; Borstnik,Urban; Taillefumier,Mathieu;
 Jakobovits,Alice Shoshana; Lazzaro,Alfio; Pabst,Hans; Mueller,Tiziano;
 Schade,Robert; Guidon,Manuel; Andermatt,Samuel; Holmberg,Nico;
 Schenter,Gregory K.; Hehn,Anna; Bussy,Augustin; Belleflamme,Fabian;
 Tabacchi,Gloria; Gloess,Andreas; Lass,Michael; Bethune,Iain;
 Mundy,Christopher J.; Plessl,Christian; Watkins,Matt;
 VandeVondele,Joost; Krack,Matthias; Hutter,Juerg. 
 The Journal of Chemical Physics, 152 (19), (2020). 
 CP2K: An electronic structure and molecular dynamics software package -
 Quickstep: Efficient and accurate electronic structure calculations.
 https://doi.org/10.1063/5.0007045

 Goerigk, Lars; Hansen, Andreas; Bauer, Christoph; Ehrlich, Stephan;
 Najibi, Asim; Grimme, Stefan. , 19 (48), (2017). 
 A look at the density functional theory zoo with the advanced GMTKN55 database
 for general main group thermochemistry, kinetics and noncovalent interactions.
 https://doi.org/10.1039/C7CP04913G

 Schuett, Ole; Messmer, Peter; Hutter, Juerg; VandeVondele, Joost. 
 Electronic Structure Calculations on Graphics Processing Units, John
 Wiley & Sons, Ltd, 173-190 (2016). 
 GPU-Accelerated Sparse Matrix-Matrix Multiplication for
 Linear Scaling Density Functional Theory.
 https://doi.org/10.1002/9781118670712.ch8

 Heinecke, A; Henry, G; Hutchinson, M; Pabst, H. 
 Proceedings of Intl. Supercomputing Conference, 981-991 (2016). 
 LIBXSMM: Accelerating Small Matrix Multiplications
 by Runtime Code Generation.
 https://doi.org/10.1109/SC.2016.83

 Borstnik, U; VandeVondele, J; Weber, V; Hutter, J. 
 PARALLEL COMPUTING, 40 (5-6), 47-58 (2014). 
 Sparse matrix multiplication: The distributed block-compressed sparse
 row library.
 https://doi.org/10.1016/j.parco.2014.03.012

 Hutter, J; Iannuzzi, M; Schiffmann, F; VandeVondele, J. 
 WIREs Comput Mol Sci., 4 (1), 15-25 (2014). 
 CP2K: atomistic simulations of condensed matter systems.
 https://doi.org/10.1002/wcms.1159

 Grimme, S; Ehrlich, S; Goerigk, L. 
 JOURNAL OF COMPUTATIONAL CHEMISTRY, 32, 1456 (2011). 
 Effect of the damping function in dispersion corrected density functional theory.
 https://doi.org/10.1002/jcc.21759

 Grimme, S; Antony, J; Ehrlich, S; Krieg, H. 
 JOURNAL OF CHEMICAL PHYSICS, 132 (15), 154104 (2010). 
 A consistent and accurate ab initio parametrization of density
 functional dispersion correction (DFT-D) for the 94 elements H-Pu.
 https://doi.org/10.1063/1.3382344

 VandeVondele, J; Hutter, J. 
 JOURNAL OF CHEMICAL PHYSICS, 127 (11), 114105 (2007). 
 Gaussian basis sets for accurate calculations on molecular systems in
 gas and condensed phases.
 https://doi.org/10.1063/1.2770708

 Kuhne, TD; Krack, M; Mohamed, FR; Parrinello, M. 
 PHYSICAL REVIEW LETTERS, 98 (6), 066401 (2007). 
 Efficient and accurate Car-Parrinello-like approach to
 Born-Oppenheimer molecular dynamics.
 https://doi.org/10.1103/PhysRevLett.98.066401

 Krack, M. 
 THEORETICAL CHEMISTRY ACCOUNTS, 114 (1-3), 145-152 (2005). 
 Pseudopotentials for H to Kr optimized for gradient-corrected
 exchange-correlation functionals.
 https://doi.org/10.1007/s00214-005-0655-y

 VandeVondele, J; Krack, M; Mohamed, F; Parrinello, M; Chassaing, T;
 Hutter, J. COMPUTER PHYSICS COMMUNICATIONS, 167 (2), 103-128 (2005). 
 QUICKSTEP: Fast and accurate density functional calculations using a
 mixed Gaussian and plane waves approach.
 https://doi.org/10.1016/j.cpc.2004.12.014

 Frigo, M; Johnson, SG. 
 PROCEEDINGS OF THE IEEE, 93 (2), 216-231 (2005). 
 The design and implementation of FFTW3.
 https://doi.org/10.1109/JPROC.2004.840301

 Kolafa, J. 
 JOURNAL OF COMPUTATIONAL CHEMISTRY, 25 (3), 335-342 (2004). 
 Time-reversible always stable predictor-corrector method for
 molecular dynamics of polarizable molecules.
 https://doi.org/10.1002/jcc.10385

 VandeVondele, J; Hutter, J. 
 JOURNAL OF CHEMICAL PHYSICS, 118 (10), 4365-4369 (2003). 
 An efficient orbital transformation method for electronic structure
 calculations.
 https://doi.org/10.1063/1.1543154

 Hartwigsen, C; Goedecker, S; Hutter, J. 
 PHYSICAL REVIEW B, 58 (7), 3641-3662 (1998). 
 Relativistic separable dual-space Gaussian pseudopotentials from H to Rn.
 https://doi.org/10.1103/PhysRevB.58.3641

 Lippert, G; Hutter, J; Parrinello, M. 
 MOLECULAR PHYSICS, 92 (3), 477-487 (1997). 
 A hybrid Gaussian and plane wave density functional scheme.
 https://doi.org/10.1080/002689797170220

 Perdew, JP; Burke, K; Ernzerhof, M. 
 PHYSICAL REVIEW LETTERS, 77 (18), 3865-3868 (1996). 
 Generalized gradient approximation made simple.
 https://doi.org/10.1103/PhysRevLett.77.3865

 Goedecker, S; Teter, M; Hutter, J. 
 PHYSICAL REVIEW B, 54 (3), 1703-1710 (1996). 
 Separable dual-space Gaussian pseudopotentials.
 https://doi.org/10.1103/PhysRevB.54.1703


 -------------------------------------------------------------------------------
 -                                                                             -
 -                                T I M I N G                                  -
 -                                                                             -
 -------------------------------------------------------------------------------
 SUBROUTINE                       CALLS  ASD         SELF TIME        TOTAL TIME
                                MAXIMUM       AVERAGE  MAXIMUM  AVERAGE  MAXIMUM
 CP2K                                 1  1.0    0.031    0.046 8939.405 8939.431
 cp_geo_opt                           1  2.0    0.002    0.002 8937.958 8938.005
 geoopt_bfgs                          1  3.0    0.250    0.296 8937.957 8938.004
 cp_eval_at                          48  4.0    0.011    0.079 8903.951 8903.991
 qs_forces                           47  5.0    0.015    0.017 8839.722 8839.750
 qs_energies                         48  6.0    0.005    0.006 8350.327 8350.567
 scf_env_do_scf                      48  7.0    0.003    0.006 8005.208 8005.279
 scf_env_do_scf_inner_loop          792  8.0    0.017    0.057 6205.152 6215.316
 rebuild_ks_matrix                  839  9.8    0.004    0.005 3143.451 3145.690
 qs_ks_build_kohn_sham_matrix       839 10.8    0.115    0.130 3143.447 3145.685
 qs_ks_update_qs_env                841  9.0    0.006    0.007 2710.680 2712.715
 dbcsr_multiply_generic           11897 13.7    0.881    0.960 2179.235 2193.228
 qs_scf_new_mos                     792  9.0    0.005    0.006 2060.428 2066.396
 qs_scf_loop_do_ot                  792 10.0    0.006    0.007 2060.423 2066.389
 ot_scf_mini                        792 11.0    0.035    0.042 1918.897 1921.466
 multiply_cannon                  11897 14.7    1.223    1.368 1844.572 1883.659
 multiply_cannon_loop             11897 15.7    1.851    2.125 1782.629 1820.882
 qs_rho_update_rho                  840  9.1    0.004    0.005 1784.783 1789.707
 calculate_rho_elec                 840 10.1    3.643    3.718 1784.779 1789.703
 init_scf_loop                       49  8.0    0.003    0.004 1788.561 1788.612
 sum_up_and_integrate               467 11.7    2.269    2.326 1588.719 1589.192
 integrate_v_rspace                 467 12.7    0.018    0.021 1586.449 1586.954
 prepare_preconditioner              49  9.0    0.000    0.001 1502.468 1502.858
 multiply_cannon_multrec         142764 16.7 1424.350 1500.006 1424.530 1500.199
 make_preconditioner                 49 10.0    0.001    0.002 1453.008 1453.403
 make_full_all                       49 11.0    0.085    0.115 1409.951 1411.001
 grid_integrate_task_list           467 13.7 1367.077 1374.834 1367.077 1374.834
 grid_collocate_task_list           840 11.1 1310.075 1341.214 1310.075 1341.214
 qs_vxc_create                      839 11.8    0.016    0.018 1270.144 1270.583
 pw_transfer                      13953 13.3    1.046    1.167 1181.947 1195.211
 fft_wrap_pw1pw2                  12275 14.4    0.157    0.172 1163.928 1177.057
 ot_mini                            792 12.0    0.006    0.007 1141.528 1144.214
 fft_wrap_pw1pw2_180               7047 15.6   99.751  100.973 1125.254 1139.411
 cp_fm_syevd                        704 13.7    0.013    0.017 1034.301 1035.054
 cp_fm_syevd_base                   704 14.7 1027.548 1027.681 1027.548 1027.681
 xc_rho_set_and_dset_create         839 13.8    6.868    6.958  895.861  901.855
 fft3d_ps                         12275 16.4  490.724  501.085  875.087  888.926
 xc_vxc_pw_create                   467 12.7   31.627   34.884  870.518  870.955
 apply_preconditioner_dbcsr         469 14.0    0.001    0.001  660.645  666.521
 apply_all                          469 15.0    0.803    0.849  660.644  666.520
 ot_new_cg_direction                420 13.0    0.008    0.010  602.329  602.339
 qs_ot_get_derivative               420 13.0    0.006    0.010  535.077  537.283
 mp_waitall_1                    765849 17.6  437.397  506.688  437.397  506.688
 density_rs2pw                      840 11.1    0.060    0.070  453.995  471.585
 qs_ks_update_qs_env_forces          47  6.0    0.000    0.000  435.805  435.998
 xc_functional_eval                 839 14.8    0.011    0.013  410.981  416.724
 pbe_lda_eval                       839 15.8  410.970  416.714  410.970  416.714
 multiply_cannon_metrocomm3      142764 16.7    0.492    0.599  345.186  407.665
 xc_exc_calc                        372 13.0    1.568    1.582  399.610  399.638
 qs_ot_get_p                        841 11.9    0.006    0.007  319.748  324.661
 rs_pw_transfer                    6630 13.0    0.094    0.110  259.045  280.242
 init_scf_run                        48  7.0    0.002    0.004  263.524  263.531
 scf_env_initial_rho_setup           48  8.0    0.001    0.002  263.523  263.529
 wfi_extrapolate                     48  9.0    0.006    0.009  258.893  258.900
 x_to_yz                           6159 18.1  186.836  188.597  249.659  254.226
 cp_gemm                            791 10.2    0.002    0.003  250.116  251.902
 cp_gemm_fm_gemm                    791 11.2    0.003    0.004  250.113  251.900
 cp_fm_gemm                         791 12.2  250.111  251.897  250.111  251.897
 qs_ot_get_orbitals                 792 12.0    0.006    0.007  246.993  249.157
 make_m2s                         23794 14.7    0.861    0.940  245.989  247.984
 qs_ot_get_derivative_diag          254 14.0    0.009    0.010  219.925  221.525
 potential_pw2rs                    467 13.7    0.164    0.236  192.283  192.709
 cp_fm_cholesky_reduce               49 12.0  187.208  187.664  187.208  187.664
 -------------------------------------------------------------------------------

 The number of warnings for this run is : 2
 
 -------------------------------------------------------------------------------
  **** **** ******  **  PROGRAM ENDED AT                 2022-09-04 20:17:30.863
 ***** ** ***  *** **   PROGRAM RAN ON             node0213.palmetto.clemson.edu
 **    ****   ******    PROGRAM RAN BY                                   xiutinc
 ***** **    ** ** **   PROGRAM PROCESS ID                               3555694
  **** **  *******  **  PROGRAM STOPPED IN    /scratch1/xiutinc/CP2K-96992.pbs02
