 DBCSR| CPU Multiplication driver                                           XSMM
 DBCSR| Multrec recursion limit                                              512
 DBCSR| Multiplication stack size                                           1000
 DBCSR| Maximum elements for images                                    UNLIMITED
 DBCSR| Multiplicative factor virtual images                                   1
 DBCSR| Use multiplication densification                                       T
 DBCSR| Multiplication size stacks                                             3
 DBCSR| Use memory pool for CPU allocation                                     F
 DBCSR| Number of 3D layers                                               SINGLE
 DBCSR| Use MPI memory allocation                                              F
 DBCSR| Use RMA algorithm                                                      F
 DBCSR| Use Communication thread                                               T
 DBCSR| Communication thread load                                             87
 DBCSR| MPI: My node id                                                        0
 DBCSR| MPI: Number of nodes                                                  20
 DBCSR| OMP: Current number of threads                                         1
 DBCSR| OMP: Max number of threads                                             1
 DBCSR| Split modifier for TAS multiplication algorithm                  1.0E+00


  **** **** ******  **  PROGRAM STARTED AT               2022-09-04 17:49:16.203
 ***** ** ***  *** **   PROGRAM STARTED ON         node1974.palmetto.clemson.edu
 **    ****   ******    PROGRAM STARTED BY                               xiutinc
 ***** **    ** ** **   PROGRAM PROCESS ID                                846219
  **** **  *******  **  PROGRAM STARTED IN    /scratch1/xiutinc/CP2K-97009.pbs02

 CP2K| version string:                                          CP2K version 9.1
 CP2K| source code revision number:                                  git:d8d7100
 CP2K| cp2kflags: omp libint fftw3 libxc parallel mpi3 scalapack xsmm           
 CP2K| is freely available from                            https://www.cp2k.org/
 CP2K| Program compiled at                          Mon Aug  8 12:17:03 EDT 2022
 CP2K| Program compiled on                         node0352.palmetto.clemson.edu
 CP2K| Program compiled for                           linux-rocky8-ivybridge-gcc
 CP2K| Data directory path    /software/spackages/linux-rocky8-ivybridge/gcc-9.5
 CP2K| Input file name                                         intE09_aq_zeo.inp

 GLOBAL| Force Environment number                                              1
 GLOBAL| Basis set file name                                          BASIS_file
 GLOBAL| Potential file name                                     POTENTIALS_file
 GLOBAL| MM Potential file name                                     MM_POTENTIAL
 GLOBAL| Coordinate file name                                ./intE09_aq_zeo.xyz
 GLOBAL| Method name                                                        CP2K
 GLOBAL| Project name                                              intE09_aq_zeo
 GLOBAL| Run type                                                         ENERGY
 GLOBAL| FFT library                                                       FFTW3
 GLOBAL| Diagonalization library                                       ScaLAPACK
 GLOBAL| Orthonormality check for eigenvectors                          DISABLED
 GLOBAL| Matrix multiplication library                                 ScaLAPACK
 GLOBAL| All-to-all communication in single precision                          F
 GLOBAL| FFTs using library dependent lengths                                  F
 GLOBAL| Grid backend                                                       AUTO
 GLOBAL| Global print level                                               MEDIUM
 GLOBAL| MPI I/O enabled                                                       T
 GLOBAL| Total number of message passing processes                            20
 GLOBAL| Number of threads for this process                                    1
 GLOBAL| This output is from process                                           0
 GLOBAL| Stack size for threads created by OpenMP (OMP_STACKSIZE)        default
 GLOBAL| CPU model name                Intel(R) Xeon(R) CPU E5-2670 v2 @ 2.50GHz
 GLOBAL| CPUID                                                              1001

 MEMORY| system memory details [Kb]
 MEMORY|                        rank 0           min           max       average
 MEMORY| MemTotal            131698652     131698652     131698652     131698652
 MEMORY| MemFree             118723580     118723580     118723580     118723580
 MEMORY| Buffers                  3380          3380          3380          3380
 MEMORY| Cached                6325800       6325800       6325800       6325800
 MEMORY| Slab                  1575492       1575492       1575492       1575492
 MEMORY| SReclaimable           508576        508576        508576        508576
 MEMORY| MemLikelyFree       125561336     125561336     125561336     125561336


 *** Fundamental physical constants (SI units) ***

 *** Literature: B. J. Mohr and B. N. Taylor,
 ***             CODATA recommended values of the fundamental physical
 ***             constants: 2006, Web Version 5.1
 ***             http://physics.nist.gov/constants

 Speed of light in vacuum [m/s]                             2.99792458000000E+08
 Magnetic constant or permeability of vacuum [N/A**2]       1.25663706143592E-06
 Electric constant or permittivity of vacuum [F/m]          8.85418781762039E-12
 Planck constant (h) [J*s]                                  6.62606896000000E-34
 Planck constant (h-bar) [J*s]                              1.05457162825177E-34
 Elementary charge [C]                                      1.60217648700000E-19
 Electron mass [kg]                                         9.10938215000000E-31
 Electron g factor [ ]                                     -2.00231930436220E+00
 Proton mass [kg]                                           1.67262163700000E-27
 Fine-structure constant                                    7.29735253760000E-03
 Rydberg constant [1/m]                                     1.09737315685270E+07
 Avogadro constant [1/mol]                                  6.02214179000000E+23
 Boltzmann constant [J/K]                                   1.38065040000000E-23
 Atomic mass unit [kg]                                      1.66053878200000E-27
 Bohr radius [m]                                            5.29177208590000E-11

 *** Conversion factors ***

 [u] -> [a.u.]                                              1.82288848426455E+03
 [Angstrom] -> [Bohr] = [a.u.]                              1.88972613288564E+00
 [a.u.] = [Bohr] -> [Angstrom]                              5.29177208590000E-01
 [a.u.] -> [s]                                              2.41888432650478E-17
 [a.u.] -> [fs]                                             2.41888432650478E-02
 [a.u.] -> [J]                                              4.35974393937059E-18
 [a.u.] -> [N]                                              8.23872205491840E-08
 [a.u.] -> [K]                                              3.15774647902944E+05
 [a.u.] -> [kJ/mol]                                         2.62549961709828E+03
 [a.u.] -> [kcal/mol]                                       6.27509468713739E+02
 [a.u.] -> [Pa]                                             2.94210107994716E+13
 [a.u.] -> [bar]                                            2.94210107994716E+08
 [a.u.] -> [atm]                                            2.90362800883016E+08
 [a.u.] -> [eV]                                             2.72113838565563E+01
 [a.u.] -> [Hz]                                             6.57968392072181E+15
 [a.u.] -> [1/cm] (wave numbers)                            2.19474631370540E+05
 [a.u./Bohr**2] -> [1/cm]                                   5.14048714338585E+03
 

 CELL_TOP| Volume [angstrom^3]:                                     14585.804391
 CELL_TOP| Vector a [angstrom    24.433     0.000     0.000   |a| =    24.433000
 CELL_TOP| Vector b [angstrom     0.000    24.433     0.000   |b| =    24.433000
 CELL_TOP| Vector c [angstrom     0.000     0.000    24.433   |c| =    24.433000
 CELL_TOP| Angle (b,c), alpha [degree]:                                90.000000
 CELL_TOP| Angle (a,c), beta  [degree]:                                90.000000
 CELL_TOP| Angle (a,b), gamma [degree]:                                90.000000
 CELL_TOP| Numerically orthorhombic:                                         YES

 CELL| Volume [angstrom^3]:                                         14585.804391
 CELL| Vector a [angstrom]:      24.433     0.000     0.000   |a| =    24.433000
 CELL| Vector b [angstrom]:       0.000    24.433     0.000   |b| =    24.433000
 CELL| Vector c [angstrom]:       0.000     0.000    24.433   |c| =    24.433000
 CELL| Angle (b,c), alpha [degree]:                                    90.000000
 CELL| Angle (a,c), beta  [degree]:                                    90.000000
 CELL| Angle (a,b), gamma [degree]:                                    90.000000
 CELL| Numerically orthorhombic:                                             YES

 CELL_REF| Volume [angstrom^3]:                                     14585.804391
 CELL_REF| Vector a [angstrom    24.433     0.000     0.000   |a| =    24.433000
 CELL_REF| Vector b [angstrom     0.000    24.433     0.000   |b| =    24.433000
 CELL_REF| Vector c [angstrom     0.000     0.000    24.433   |c| =    24.433000
 CELL_REF| Angle (b,c), alpha [degree]:                                90.000000
 CELL_REF| Angle (a,c), beta  [degree]:                                90.000000
 CELL_REF| Angle (a,b), gamma [degree]:                                90.000000
 CELL_REF| Numerically orthorhombic:                                         YES

 *******************************************************************************
 *******************************************************************************
 **                                                                           **
 **     #####                         ##              ##                      **
 **    ##   ##            ##          ##              ##                      **
 **   ##     ##                       ##            ######                    **
 **   ##     ##  ##   ##  ##   #####  ##  ##   ####   ##    #####    #####    **
 **   ##     ##  ##   ##  ##  ##      ## ##   ##      ##   ##   ##  ##   ##   **
 **   ##  ## ##  ##   ##  ##  ##      ####     ###    ##   ######   ######    **
 **    ##  ###   ##   ##  ##  ##      ## ##      ##   ##   ##       ##        **
 **     #######   #####   ##   #####  ##  ##  ####    ##    #####   ##        **
 **           ##                                                    ##        **
 **                                                                           **
 **                                                ... make the atoms dance   **
 **                                                                           **
 **            Copyright (C) by CP2K developers group (2000-2021)             **
 **                      J. Chem. Phys. 152, 194103 (2020)                    **
 **                                                                           **
 *******************************************************************************

 DFT| Spin restricted Kohn-Sham (RKS) calculation                            RKS
 DFT| Multiplicity                                                             1
 DFT| Number of spin states                                                    1
 DFT| Charge                                                                   0
 DFT| Self-interaction correction (SIC)                                       NO
 DFT| Cutoffs: density                                              1.000000E-10
 DFT|          gradient                                             1.000000E-10
 DFT|          tau                                                  1.000000E-10
 DFT|          cutoff_smoothing_range                               0.000000E+00
 DFT| XC density smoothing                                                  NONE
 DFT| XC derivatives                                                          PW
 FUNCTIONAL| ROUTINE=NEW
 FUNCTIONAL| PBE:
 FUNCTIONAL| J.P.Perdew, K.Burke, M.Ernzerhof, Phys. Rev. Letter, vol. 77, n 18,
 FUNCTIONAL|  pp. 3865-3868, (1996){spin unpolarized}                           
 vdW POTENTIAL|                                                   Pair Potential
 vdW POTENTIAL|          DFT-D3 (Version 3.1)
 vdW POTENTIAL|          Potential Form: S. Grimme et al, JCP 132: 154104 (2010)
 vdW POTENTIAL|          BJ Damping: S. Grimme et al, JCC 32: 1456 (2011)
 vdW POTENTIAL|          Cutoff Radius [Bohr]:                             20.00
 vdW POTENTIAL|          s6 Scaling Factor:                               1.0000
 vdW POTENTIAL|          a1 Damping Factor:                               0.4289
 vdW POTENTIAL|          s8 Scaling Factor:                               0.7875
 vdW POTENTIAL|          a2 Damping Factor:                               4.4407
 vdW POTENTIAL|          Cutoff for CN calculation:                   0.1000E-05

 QS| Method:                                                                 GPW
 QS| Density plane wave grid type                        NON-SPHERICAL FULLSPACE
 QS| Number of grid levels:                                                    5
 QS| Density cutoff [a.u.]:                                                180.0
 QS| Multi grid cutoff [a.u.]: 1) grid level                               180.0
 QS|                           2) grid level                                60.0
 QS|                           3) grid level                                20.0
 QS|                           4) grid level                                 6.7
 QS|                           5) grid level                                 2.2
 QS| Grid level progression factor:                                          3.0
 QS| Relative density cutoff [a.u.]:                                        40.0
 QS| Interaction thresholds: eps_pgf_orb:                                1.0E-05
 QS|                         eps_filter_matrix:                          0.0E+00
 QS|                         eps_core_charge:                            1.0E-12
 QS|                         eps_rho_gspace:                             1.0E-10
 QS|                         eps_rho_rspace:                             1.0E-10
 QS|                         eps_gvg_rspace:                             1.0E-05
 QS|                         eps_ppl:                                    1.0E-02
 QS|                         eps_ppnl:                                   1.0E-07


 ATOMIC KIND INFORMATION

  1. Atomic kind: Ti                                    Number of atoms:       1

     Orbital Basis Set                                    DZVP-MOLOPT-SR-GTH-q12

       Number of orbital shell sets:                                           1
       Number of orbital shells:                                               8
       Number of primitive Cartesian functions:                                6
       Number of Cartesian basis functions:                                   31
       Number of spherical basis functions:                                   26
       Norm type:                                                              2

       Normalised Cartesian orbitals:

                        Set   Shell   Orbital            Exponent    Coefficient

                          1       1    2s                7.884570       0.015554
                                                         3.894698       0.963603
                                                         1.513589      -0.631435
                                                         0.596768      -0.343022
                                                         0.222222      -0.006534
                                                         0.077078       0.007652

                          1       2    3s                7.884570      -0.009340
                                                         3.894698       0.212624
                                                         1.513589      -0.258368
                                                         0.596768      -0.226206
                                                         0.222222       0.039438
                                                         0.077078       0.107179

                          1       3    4s                7.884570       0.276563
                                                         3.894698       0.105452
                                                         1.513589       0.085149
                                                         0.596768       0.882541
                                                         0.222222      -0.696223
                                                         0.077078       0.156638

                          1       4    3px               7.884570      -2.034794
                                                         3.894698       0.782008
                                                         1.513589       1.253903
                                                         0.596768       0.347823
                                                         0.222222       0.016778
                                                         0.077078      -0.000433
                          1       4    3py               7.884570      -2.034794
                                                         3.894698       0.782008
                                                         1.513589       1.253903
                                                         0.596768       0.347823
                                                         0.222222       0.016778
                                                         0.077078      -0.000433
                          1       4    3pz               7.884570      -2.034794
                                                         3.894698       0.782008
                                                         1.513589       1.253903
                                                         0.596768       0.347823
                                                         0.222222       0.016778
                                                         0.077078      -0.000433

                          1       5    4px               7.884570       0.376572
                                                         3.894698      -0.182875
                                                         1.513589      -0.474776
                                                         0.596768      -0.081757
                                                         0.222222       0.064432
                                                         0.077078       0.047279
                          1       5    4py               7.884570       0.376572
                                                         3.894698      -0.182875
                                                         1.513589      -0.474776
                                                         0.596768      -0.081757
                                                         0.222222       0.064432
                                                         0.077078       0.047279
                          1       5    4pz               7.884570       0.376572
                                                         3.894698      -0.182875
                                                         1.513589      -0.474776
                                                         0.596768      -0.081757
                                                         0.222222       0.064432
                                                         0.077078       0.047279

                          1       6    4dx2              7.884570       3.047350
                                                         3.894698       3.289529
                                                         1.513589       1.060616
                                                         0.596768       0.249930
                                                         0.222222       0.038806
                                                         0.077078       0.002319
                          1       6    4dxy              7.884570       5.278165
                                                         3.894698       5.697631
                                                         1.513589       1.837041
                                                         0.596768       0.432892
                                                         0.222222       0.067214
                                                         0.077078       0.004017
                          1       6    4dxz              7.884570       5.278165
                                                         3.894698       5.697631
                                                         1.513589       1.837041
                                                         0.596768       0.432892
                                                         0.222222       0.067214
                                                         0.077078       0.004017
                          1       6    4dy2              7.884570       3.047350
                                                         3.894698       3.289529
                                                         1.513589       1.060616
                                                         0.596768       0.249930
                                                         0.222222       0.038806
                                                         0.077078       0.002319
                          1       6    4dyz              7.884570       5.278165
                                                         3.894698       5.697631
                                                         1.513589       1.837041
                                                         0.596768       0.432892
                                                         0.222222       0.067214
                                                         0.077078       0.004017
                          1       6    4dz2              7.884570       3.047350
                                                         3.894698       3.289529
                                                         1.513589       1.060616
                                                         0.596768       0.249930
                                                         0.222222       0.038806
                                                         0.077078       0.002319

                          1       7    5dx2              7.884570      -2.119015
                                                         3.894698      -1.237751
                                                         1.513589      -0.746777
                                                         0.596768      -0.071514
                                                         0.222222       0.004086
                                                         0.077078       0.017595
                          1       7    5dxy              7.884570      -3.670241
                                                         3.894698      -2.143848
                                                         1.513589      -1.293455
                                                         0.596768      -0.123865
                                                         0.222222       0.007077
                                                         0.077078       0.030475
                          1       7    5dxz              7.884570      -3.670241
                                                         3.894698      -2.143848
                                                         1.513589      -1.293455
                                                         0.596768      -0.123865
                                                         0.222222       0.007077
                                                         0.077078       0.030475
                          1       7    5dy2              7.884570      -2.119015
                                                         3.894698      -1.237751
                                                         1.513589      -0.746777
                                                         0.596768      -0.071514
                                                         0.222222       0.004086
                                                         0.077078       0.017595
                          1       7    5dyz              7.884570      -3.670241
                                                         3.894698      -2.143848
                                                         1.513589      -1.293455
                                                         0.596768      -0.123865
                                                         0.222222       0.007077
                                                         0.077078       0.030475
                          1       7    5dz2              7.884570      -2.119015
                                                         3.894698      -1.237751
                                                         1.513589      -0.746777
                                                         0.596768      -0.071514
                                                         0.222222       0.004086
                                                         0.077078       0.017595

                          1       8    5fx3              7.884570      -0.342058
                                                         3.894698       0.375798
                                                         1.513589      -0.706469
                                                         0.596768      -0.229994
                                                         0.222222      -0.012723
                                                         0.077078       0.003932
                          1       8    5fx2y             7.884570      -0.764866
                                                         3.894698       0.840310
                                                         1.513589      -1.579712
                                                         0.596768      -0.514282
                                                         0.222222      -0.028450
                                                         0.077078       0.008792
                          1       8    5fx2z             7.884570      -0.764866
                                                         3.894698       0.840310
                                                         1.513589      -1.579712
                                                         0.596768      -0.514282
                                                         0.222222      -0.028450
                                                         0.077078       0.008792
                          1       8    5fxy2             7.884570      -0.764866
                                                         3.894698       0.840310
                                                         1.513589      -1.579712
                                                         0.596768      -0.514282
                                                         0.222222      -0.028450
                                                         0.077078       0.008792
                          1       8    5fxyz             7.884570      -1.324787
                                                         3.894698       1.455460
                                                         1.513589      -2.736142
                                                         0.596768      -0.890763
                                                         0.222222      -0.049276
                                                         0.077078       0.015229
                          1       8    5fxz2             7.884570      -0.764866
                                                         3.894698       0.840310
                                                         1.513589      -1.579712
                                                         0.596768      -0.514282
                                                         0.222222      -0.028450
                                                         0.077078       0.008792
                          1       8    5fy3              7.884570      -0.342058
                                                         3.894698       0.375798
                                                         1.513589      -0.706469
                                                         0.596768      -0.229994
                                                         0.222222      -0.012723
                                                         0.077078       0.003932
                          1       8    5fy2z             7.884570      -0.764866
                                                         3.894698       0.840310
                                                         1.513589      -1.579712
                                                         0.596768      -0.514282
                                                         0.222222      -0.028450
                                                         0.077078       0.008792
                          1       8    5fyz2             7.884570      -0.764866
                                                         3.894698       0.840310
                                                         1.513589      -1.579712
                                                         0.596768      -0.514282
                                                         0.222222      -0.028450
                                                         0.077078       0.008792
                          1       8    5fz3              7.884570      -0.342058
                                                         3.894698       0.375798
                                                         1.513589      -0.706469
                                                         0.596768      -0.229994
                                                         0.222222      -0.012723
                                                         0.077078       0.003932

       Atomic covalent radius [Angstrom]:                                  1.320

       Atomic van der Waals radius [Angstrom]:                             1.760

     GTH Potential information for                                   GTH-PBE-q12

       Description:                       Goedecker-Teter-Hutter pseudopotential
                                           Goedecker et al., PRB 54, 1703 (1996)
                                          Hartwigsen et al., PRB 58, 3641 (1998)
                                                      Krack, TCA 114, 145 (2005)

       Gaussian exponent of the core charge distribution:               3.462604
       Electronic configuration (s p d ...):                           4   6   2

       Parameters of the local part of the GTH pseudopotential:

                          rloc        C1          C2          C3          C4
                        0.380000    8.711442   -0.700287

       Parameters of the non-local part of the GTH pseudopotential:

                   l      r(l)      h(i,j,l)

                   0    0.337771    2.575264    3.692971
                                    3.692971   -4.767605
                   1    0.242531   -4.630541    8.870875
                                    8.870875  -10.496161
                   2    0.243317   -9.406653

  2. Atomic kind: Si                                    Number of atoms:     190

     Orbital Basis Set                                     DZVP-MOLOPT-SR-GTH-q4

       Number of orbital shell sets:                                           1
       Number of orbital shells:                                               5
       Number of primitive Cartesian functions:                                4
       Number of Cartesian basis functions:                                   14
       Number of spherical basis functions:                                   13
       Norm type:                                                              2

       Normalised Cartesian orbitals:

                        Set   Shell   Orbital            Exponent    Coefficient

                          1       1    2s                1.256768       0.294045
                                                         0.506394      -0.015884
                                                         0.238884      -0.207657
                                                         0.087337      -0.036225

                          1       2    3s                1.256768      -1.532347
                                                         0.506394       0.524539
                                                         0.238884       0.025013
                                                         0.087337      -0.052203

                          1       3    3px               1.256768       0.152274
                                                         0.506394      -0.154145
                                                         0.238884      -0.115581
                                                         0.087337      -0.028372
                          1       3    3py               1.256768       0.152274
                                                         0.506394      -0.154145
                                                         0.238884      -0.115581
                                                         0.087337      -0.028372
                          1       3    3pz               1.256768       0.152274
                                                         0.506394      -0.154145
                                                         0.238884      -0.115581
                                                         0.087337      -0.028372

                          1       4    4px               1.256768       0.313378
                                                         0.506394      -0.415360
                                                         0.238884      -0.022539
                                                         0.087337       0.078473
                          1       4    4py               1.256768       0.313378
                                                         0.506394      -0.415360
                                                         0.238884      -0.022539
                                                         0.087337       0.078473
                          1       4    4pz               1.256768       0.313378
                                                         0.506394      -0.415360
                                                         0.238884      -0.022539
                                                         0.087337       0.078473

                          1       5    4dx2              1.256768       0.325879
                                                         0.506394       0.163831
                                                         0.238884       0.044076
                                                         0.087337       0.010608
                          1       5    4dxy              1.256768       0.564439
                                                         0.506394       0.283764
                                                         0.238884       0.076342
                                                         0.087337       0.018373
                          1       5    4dxz              1.256768       0.564439
                                                         0.506394       0.283764
                                                         0.238884       0.076342
                                                         0.087337       0.018373
                          1       5    4dy2              1.256768       0.325879
                                                         0.506394       0.163831
                                                         0.238884       0.044076
                                                         0.087337       0.010608
                          1       5    4dyz              1.256768       0.564439
                                                         0.506394       0.283764
                                                         0.238884       0.076342
                                                         0.087337       0.018373
                          1       5    4dz2              1.256768       0.325879
                                                         0.506394       0.163831
                                                         0.238884       0.044076
                                                         0.087337       0.010608

       Atomic covalent radius [Angstrom]:                                  1.110

       Atomic van der Waals radius [Angstrom]:                             2.100

     GTH Potential information for                                    GTH-PBE-q4

       Description:                       Goedecker-Teter-Hutter pseudopotential
                                           Goedecker et al., PRB 54, 1703 (1996)
                                          Hartwigsen et al., PRB 58, 3641 (1998)
                                                      Krack, TCA 114, 145 (2005)

       Gaussian exponent of the core charge distribution:               2.582645
       Electronic configuration (s p d ...):                               2   2

       Parameters of the local part of the GTH pseudopotential:

                          rloc        C1          C2          C3          C4
                        0.440000   -6.269288

       Parameters of the non-local part of the GTH pseudopotential:

                   l      r(l)      h(i,j,l)

                   0    0.435634    8.951742   -2.706271
                                   -2.706271    3.493781
                   1    0.497942    2.431277

  3. Atomic kind: O                                     Number of atoms:     402

     Orbital Basis Set                                     DZVP-MOLOPT-SR-GTH-q6

       Number of orbital shell sets:                                           1
       Number of orbital shells:                                               5
       Number of primitive Cartesian functions:                                5
       Number of Cartesian basis functions:                                   14
       Number of spherical basis functions:                                   13
       Norm type:                                                              2

       Normalised Cartesian orbitals:

                        Set   Shell   Orbital            Exponent    Coefficient

                          1       1    2s               10.389228       0.396646
                                                         3.849621       0.208811
                                                         1.388401      -0.301641
                                                         0.496955      -0.274061
                                                         0.162492      -0.033677

                          1       2    3s               10.389228       0.303673
                                                         3.849621       0.240943
                                                         1.388401      -0.313066
                                                         0.496955      -0.043055
                                                         0.162492       0.213991

                          1       3    3px              10.389228      -1.530415
                                                         3.849621      -1.371928
                                                         1.388401      -0.761951
                                                         0.496955      -0.253695
                                                         0.162492      -0.035541
                          1       3    3py              10.389228      -1.530415
                                                         3.849621      -1.371928
                                                         1.388401      -0.761951
                                                         0.496955      -0.253695
                                                         0.162492      -0.035541
                          1       3    3pz              10.389228      -1.530415
                                                         3.849621      -1.371928
                                                         1.388401      -0.761951
                                                         0.496955      -0.253695
                                                         0.162492      -0.035541

                          1       4    4px              10.389228      -0.565392
                                                         3.849621      -0.038231
                                                         1.388401      -0.382373
                                                         0.496955       0.179070
                                                         0.162492       0.122714
                          1       4    4py              10.389228      -0.565392
                                                         3.849621      -0.038231
                                                         1.388401      -0.382373
                                                         0.496955       0.179070
                                                         0.162492       0.122714
                          1       4    4pz              10.389228      -0.565392
                                                         3.849621      -0.038231
                                                         1.388401      -0.382373
                                                         0.496955       0.179070
                                                         0.162492       0.122714

                          1       5    4dx2             10.389228       1.867377
                                                         3.849621       0.670994
                                                         1.388401       1.353441
                                                         0.496955       0.273538
                                                         0.162492       0.006620
                          1       5    4dxy             10.389228       3.234392
                                                         3.849621       1.162195
                                                         1.388401       2.344229
                                                         0.496955       0.473781
                                                         0.162492       0.011466
                          1       5    4dxz             10.389228       3.234392
                                                         3.849621       1.162195
                                                         1.388401       2.344229
                                                         0.496955       0.473781
                                                         0.162492       0.011466
                          1       5    4dy2             10.389228       1.867377
                                                         3.849621       0.670994
                                                         1.388401       1.353441
                                                         0.496955       0.273538
                                                         0.162492       0.006620
                          1       5    4dyz             10.389228       3.234392
                                                         3.849621       1.162195
                                                         1.388401       2.344229
                                                         0.496955       0.473781
                                                         0.162492       0.011466
                          1       5    4dz2             10.389228       1.867377
                                                         3.849621       0.670994
                                                         1.388401       1.353441
                                                         0.496955       0.273538
                                                         0.162492       0.006620

       Atomic covalent radius [Angstrom]:                                  0.730

       Atomic van der Waals radius [Angstrom]:                             1.520

     GTH Potential information for                                    GTH-PBE-q6

       Description:                       Goedecker-Teter-Hutter pseudopotential
                                           Goedecker et al., PRB 54, 1703 (1996)
                                          Hartwigsen et al., PRB 58, 3641 (1998)
                                                      Krack, TCA 114, 145 (2005)

       Gaussian exponent of the core charge distribution:               8.360253
       Electronic configuration (s p d ...):                               2   4

       Parameters of the local part of the GTH pseudopotential:

                          rloc        C1          C2          C3          C4
                        0.244554  -16.667215    2.487311

       Parameters of the non-local part of the GTH pseudopotential:

                   l      r(l)      h(i,j,l)

                   0    0.220956   18.337458
                   1    0.211332

  4. Atomic kind: H                                     Number of atoms:      40

     Orbital Basis Set                                     DZVP-MOLOPT-SR-GTH-q1

       Number of orbital shell sets:                                           1
       Number of orbital shells:                                               3
       Number of primitive Cartesian functions:                                5
       Number of Cartesian basis functions:                                    5
       Number of spherical basis functions:                                    5
       Norm type:                                                              2

       Normalised Cartesian orbitals:

                        Set   Shell   Orbital            Exponent    Coefficient

                          1       1    2s               10.068468      -0.133023
                                                         2.680223      -0.177618
                                                         0.791502      -0.258419
                                                         0.239116      -0.107525
                                                         0.082193      -0.014019

                          1       2    3s               10.068468       0.344673
                                                         2.680223       1.819821
                                                         0.791502      -0.999069
                                                         0.239116       0.017430
                                                         0.082193       0.082660

                          1       3    3px              10.068468       0.155326
                                                         2.680223       0.367157
                                                         0.791502       0.311480
                                                         0.239116       0.080105
                                                         0.082193       0.033440
                          1       3    3py              10.068468       0.155326
                                                         2.680223       0.367157
                                                         0.791502       0.311480
                                                         0.239116       0.080105
                                                         0.082193       0.033440
                          1       3    3pz              10.068468       0.155326
                                                         2.680223       0.367157
                                                         0.791502       0.311480
                                                         0.239116       0.080105
                                                         0.082193       0.033440

       Atomic covalent radius [Angstrom]:                                  0.320

       Atomic van der Waals radius [Angstrom]:                             1.090

     GTH Potential information for                                    GTH-PBE-q1

       Description:                       Goedecker-Teter-Hutter pseudopotential
                                           Goedecker et al., PRB 54, 1703 (1996)
                                          Hartwigsen et al., PRB 58, 3641 (1998)
                                                      Krack, TCA 114, 145 (2005)

       Gaussian exponent of the core charge distribution:              12.500000
       Electronic configuration (s p d ...):                                   1

       Parameters of the local part of the GTH pseudopotential:

                          rloc        C1          C2          C3          C4
                        0.200000   -4.178900    0.724463


 MOLECULE KIND INFORMATION


 All atoms are their own molecule, skipping detailed information


 TOTAL NUMBERS AND MAXIMUM NUMBERS

  Total number of            - Atomic kinds:                                   4
                             - Atoms:                                        633
                             - Shell sets:                                   633
                             - Shells:                                      3088
                             - Primitive Cartesian functions:               2976
                             - Cartesian basis functions:                   8519
                             - Spherical basis functions:                   7922

  Maximum angular momentum of- Orbital basis functions:                        3
                             - Local part of the GTH pseudopotential:          2
                             - Non-local part of the GTH pseudopotential:      3


 MODULE QUICKSTEP:  ATOMIC COORDINATES IN angstrom

 Atom  Kind  Element       X           Y           Z          Z(eff)       Mass
    1   1 Ti  22      10.593200   15.287000   12.981100      12.0000     47.8670
    2   2 Si  14      19.613100    3.043630    0.969280       4.0000     28.0855
    3   2 Si  14      21.389200    1.288470    7.077330       4.0000     28.0855
    4   2 Si  14      19.613000    3.064870    5.297820       4.0000     28.0855
    5   2 Si  14      21.368100    1.288540   11.405900       4.0000     28.0855
    6   2 Si  14      17.435100    7.396620    3.143910       4.0000     28.0855
    7   2 Si  14      17.036300   23.543400    9.252260       4.0000     28.0855
    8   2 Si  14      17.434900   23.144600    3.122910       4.0000     28.0855
    9   2 Si  14       1.288280   23.543500    9.230860       4.0000     28.0855
   10   2 Si  14       3.064600    0.890460   11.007200       4.0000     28.0855
   11   2 Si  14       6.998150   21.389400    1.367850       4.0000     28.0855
   12   2 Si  14       3.045910   13.108800    7.463260       4.0000     28.0855
   13   2 Si  14      23.543200    9.151850    1.367900       4.0000     28.0855
   14   2 Si  14       3.043680    5.218580   11.007400       4.0000     28.0855
   15   2 Si  14      11.329800    9.174760    4.903570       4.0000     28.0855
   16   2 Si  14       1.287820   21.368500   11.405800       4.0000     28.0855
   17   2 Si  14       3.064660   19.613500    5.296990       4.0000     28.0855
   18   2 Si  14       1.288320   21.389600    7.076930       4.0000     28.0855
   19   2 Si  14       3.043640   19.613100    0.969190       4.0000     28.0855
   20   2 Si  14      23.542900    1.288630    9.231150       4.0000     28.0855
   21   2 Si  14      23.144500   17.434700    3.123000       4.0000     28.0855
   22   2 Si  14      23.542800   17.035900    9.251960       4.0000     28.0855
   23   2 Si  14       7.397040   17.434600    3.144250       4.0000     28.0855
   24   2 Si  14       9.152750    6.999110    4.899540       4.0000     28.0855
   25   2 Si  14      17.434700    3.065020    7.476120       4.0000     28.0855
   26   2 Si  14      23.144600   15.281100    0.969290       4.0000     28.0855
   27   2 Si  14      21.368000   17.036100    7.077340       4.0000     28.0855
   28   2 Si  14      23.144400   15.259900    5.297740       4.0000     28.0855
   29   2 Si  14      21.389100   17.036100   11.406000       4.0000     28.0855
   30   2 Si  14       0.889830   10.928000    3.143990       4.0000     28.0855
   31   2 Si  14       1.287740   19.214500    9.251940       4.0000     28.0855
   32   2 Si  14       0.889670   19.613100    3.122680       4.0000     28.0855
   33   2 Si  14      17.045400   19.221500    9.227480       4.0000     28.0855
   34   2 Si  14      15.281100    5.218810    7.476180       4.0000     28.0855
   35   2 Si  14       6.998510    9.152100    4.898990       4.0000     28.0855
   36   2 Si  14       4.818900    9.173220   11.404100       4.0000     28.0855
   37   2 Si  14       3.043250   10.926700    5.296450       4.0000     28.0855
   38   2 Si  14       4.818960    9.149760    7.075230       4.0000     28.0855
   39   2 Si  14       3.064850   10.928100    0.969530       4.0000     28.0855
   40   2 Si  14       6.998390    4.819920    9.231060       4.0000     28.0855
   41   2 Si  14       7.398230   13.104000    3.121040       4.0000     28.0855
   42   2 Si  14       6.973810   13.515800    9.261360       4.0000     28.0855
   43   2 Si  14      23.144700   13.106100    3.144170       4.0000     28.0855
   44   2 Si  14      21.368300   11.326700    1.367960       4.0000     28.0855
   45   2 Si  14      17.435100   15.259200   11.007400       4.0000     28.0855
   46   2 Si  14      21.389400   23.543300    4.899210       4.0000     28.0855
   47   2 Si  14       0.889710    3.064980   11.007400       4.0000     28.0855
   48   2 Si  14      21.389400    6.998180    1.367930       4.0000     28.0855
   49   2 Si  14      13.106300    3.043820    7.476120       4.0000     28.0855
   50   2 Si  14      10.928100    3.064900    0.969430       4.0000     28.0855
   51   2 Si  14       9.151950    4.820160    7.077250       4.0000     28.0855
   52   2 Si  14      10.928200    3.043780    5.297840       4.0000     28.0855
   53   2 Si  14       9.173260    4.819470   11.405500       4.0000     28.0855
   54   2 Si  14      13.106200   23.144600    3.144050       4.0000     28.0855
   55   2 Si  14      13.505300    6.999870    9.251920       4.0000     28.0855
   56   2 Si  14      13.106100    7.397170    3.123620       4.0000     28.0855
   57   2 Si  14       4.819920    6.997950    9.230720       4.0000     28.0855
   58   2 Si  14       3.062640   17.435500    7.474560       4.0000     28.0855
   59   2 Si  14      19.214800   21.368400    4.898880       4.0000     28.0855
   60   2 Si  14      17.036800   21.389700   11.405800       4.0000     28.0855
   61   2 Si  14      15.259900   23.145000    5.297580       4.0000     28.0855
   62   2 Si  14      17.036800   21.370000    7.076020       4.0000     28.0855
   63   2 Si  14      15.281200   23.144600    0.969250       4.0000     28.0855
   64   2 Si  14      19.214800   17.035800    9.231060       4.0000     28.0855
   65   2 Si  14      19.613100    0.889920    3.122970       4.0000     28.0855
   66   2 Si  14      19.214300    1.288510    9.252230       4.0000     28.0855
   67   2 Si  14      10.928100    0.889950    3.144170       4.0000     28.0855
   68   2 Si  14       9.151830   23.543200    1.367890       4.0000     28.0855
   69   2 Si  14       5.218710    3.044010   11.007500       4.0000     28.0855
   70   2 Si  14       9.173490   11.328000    4.900850       4.0000     28.0855
   71   2 Si  14      13.192100   15.277400   10.834100       4.0000     28.0855
   72   2 Si  14       9.172930   19.214400    1.367870       4.0000     28.0855
   73   2 Si  14       0.889950   15.259300    7.475720       4.0000     28.0855
   74   2 Si  14       7.396790   15.259800    0.969640       4.0000     28.0855
   75   2 Si  14       9.171370   13.506400    7.086250       4.0000     28.0855
   76   2 Si  14       7.387870   15.281500    5.290280       4.0000     28.0855
   77   2 Si  14       5.218850   19.612700    3.143940       4.0000     28.0855
   78   2 Si  14       4.813670   11.323400    9.245400       4.0000     28.0855
   79   2 Si  14       5.218670   10.928100    3.122960       4.0000     28.0855
   80   2 Si  14      13.520000   11.311700    9.213790       4.0000     28.0855
   81   2 Si  14      15.282800   13.103700   11.007000       4.0000     28.0855
   82   2 Si  14      19.214500    9.173000    1.367940       4.0000     28.0855
   83   2 Si  14      15.260000    0.890050    7.476060       4.0000     28.0855
   84   2 Si  14      11.326700   21.368200    1.367870       4.0000     28.0855
   85   2 Si  14      15.280100   17.440600   10.989800       4.0000     28.0855
   86   2 Si  14      23.542900   21.389300    4.899040       4.0000     28.0855
   87   2 Si  14      13.504500    9.152620   11.405600       4.0000     28.0855
   88   2 Si  14      15.281900    7.394980    5.296500       4.0000     28.0855
   89   2 Si  14      13.518100    9.178020    7.080220       4.0000     28.0855
   90   2 Si  14      15.259800    7.396760    0.969590       4.0000     28.0855
   91   2 Si  14      11.437000   13.526000    9.176210       4.0000     28.0855
   92   2 Si  14      10.928100    5.218880    3.123090       4.0000     28.0855
   93   2 Si  14      11.327200    4.820320    9.252280       4.0000     28.0855
   94   2 Si  14      19.613200    5.218560    3.144150       4.0000     28.0855
   95   2 Si  14      21.368200   19.214400    4.899240       4.0000     28.0855
   96   2 Si  14       5.195540   15.280000    7.422050       4.0000     28.0855
   97   2 Si  14      23.144500    3.064830   13.185700       4.0000     28.0855
   98   2 Si  14      21.368200    4.819940   19.294000       4.0000     28.0855
   99   2 Si  14      23.144500    3.043740   17.514400       4.0000     28.0855
  100   2 Si  14      21.389400    4.819850   23.622700       4.0000     28.0855
  101   2 Si  14       0.889210   23.144700   15.360700       4.0000     28.0855
  102   2 Si  14       1.288340    6.998060   21.469100       4.0000     28.0855
  103   2 Si  14       0.889710    7.396660   15.339500       4.0000     28.0855
  104   2 Si  14      17.036400    6.998080   21.447900       4.0000     28.0855
  105   2 Si  14      15.281200   17.434400   19.692900       4.0000     28.0855
  106   2 Si  14       6.994010   21.374700   17.118500       4.0000     28.0855
  107   2 Si  14       4.819810   21.389500   23.623100       4.0000     28.0855
  108   2 Si  14       3.042860   23.145000   17.514700       4.0000     28.0855
  109   2 Si  14       4.818360   21.368900   19.295600       4.0000     28.0855
  110   2 Si  14       3.063990   23.145200   13.185400       4.0000     28.0855
  111   2 Si  14       6.997860   17.036300   21.448700       4.0000     28.0855
  112   2 Si  14       7.396990    0.890810   15.339500       4.0000     28.0855
  113   2 Si  14       6.998250    1.288640   21.469000       4.0000     28.0855
  114   2 Si  14      23.144300    0.890130   15.360600       4.0000     28.0855
  115   2 Si  14      21.368000   23.543400   13.584300       4.0000     28.0855
  116   2 Si  14      17.435000    3.043650   23.224100       4.0000     28.0855
  117   2 Si  14      21.389100   11.326700   17.115700       4.0000     28.0855
  118   2 Si  14       0.889600   15.281100   23.224200       4.0000     28.0855
  119   2 Si  14      21.389100   19.214300   13.584200       4.0000     28.0855
  120   2 Si  14      13.106600   15.259400   19.692100       4.0000     28.0855
  121   2 Si  14      19.612800   15.259600   13.185300       4.0000     28.0855
  122   2 Si  14      21.389300   13.504800   19.293900       4.0000     28.0855
  123   2 Si  14      19.613000   15.281000   17.514300       4.0000     28.0855
  124   2 Si  14      21.368100   13.504900   23.622700       4.0000     28.0855
  125   2 Si  14      17.434600   19.612700   15.359600       4.0000     28.0855
  126   2 Si  14      17.036100   11.326600   21.468400       4.0000     28.0855
  127   2 Si  14      17.433100   10.927700   15.339400       4.0000     28.0855
  128   2 Si  14       1.288290   11.326600   21.447900       4.0000     28.0855
  129   2 Si  14       3.064580   13.106100   23.224200       4.0000     28.0855
  130   2 Si  14       6.984220    9.139320   13.586100       4.0000     28.0855
  131   2 Si  14       3.043500    0.890280   19.692900       4.0000     28.0855
  132   2 Si  14      23.542600   21.368300   13.584400       4.0000     28.0855
  133   2 Si  14       3.043340   17.434800   23.224400       4.0000     28.0855
  134   2 Si  14      11.323100   21.386100   17.129800       4.0000     28.0855
  135   2 Si  14       1.288390    9.151750   23.622800       4.0000     28.0855
  136   2 Si  14       3.063380    7.396170   17.515400       4.0000     28.0855
  137   2 Si  14       1.288060    9.172960   19.294200       4.0000     28.0855
  138   2 Si  14       3.043360    7.396120   13.185800       4.0000     28.0855
  139   2 Si  14      23.543000   13.504900   21.447800       4.0000     28.0855
  140   2 Si  14      23.144500    5.218560   15.339500       4.0000     28.0855
  141   2 Si  14      23.543000    4.819890   21.469000       4.0000     28.0855
  142   2 Si  14       7.397050    5.217980   15.361200       4.0000     28.0855
  143   2 Si  14       9.150920   19.244700   17.151700       4.0000     28.0855
  144   2 Si  14      17.434400   15.280200   19.692300       4.0000     28.0855
  145   2 Si  14       7.396680    3.044330   13.185600       4.0000     28.0855
  146   2 Si  14       9.173030    1.288840   19.294400       4.0000     28.0855
  147   2 Si  14       7.396640    3.064980   17.514600       4.0000     28.0855
  148   2 Si  14       9.151930    1.288460   23.622800       4.0000     28.0855
  149   2 Si  14       5.213750    7.390690   15.363700       4.0000     28.0855
  150   2 Si  14       4.819740   23.543700   21.469500       4.0000     28.0855
  151   2 Si  14       5.217400   23.146400   15.339100       4.0000     28.0855
  152   2 Si  14      13.505000   23.543500   21.448300       4.0000     28.0855
  153   2 Si  14      15.281300    0.889990   23.224200       4.0000     28.0855
  154   2 Si  14      19.214400   21.389500   13.584300       4.0000     28.0855
  155   2 Si  14      15.259000   13.103200   19.688800       4.0000     28.0855
  156   2 Si  14      11.325500    9.148660   13.585400       4.0000     28.0855
  157   2 Si  14      15.260100    5.218550   23.224100       4.0000     28.0855
  158   2 Si  14      23.542900    9.172920   17.115800       4.0000     28.0855
  159   2 Si  14      13.504900   21.368300   23.622800       4.0000     28.0855
  160   2 Si  14      15.283000   19.613600   17.515800       4.0000     28.0855
  161   2 Si  14      13.506700   21.389700   19.295800       4.0000     28.0855
  162   2 Si  14      15.259400   19.607800   13.180900       4.0000     28.0855
  163   2 Si  14      11.326900    1.288480   21.448000       4.0000     28.0855
  164   2 Si  14      10.922600   17.487100   15.395500       4.0000     28.0855
  165   2 Si  14      11.327400   17.035900   21.469300       4.0000     28.0855
  166   2 Si  14      19.613100   17.434600   15.360400       4.0000     28.0855
  167   2 Si  14      21.368000    6.998210   17.115700       4.0000     28.0855
  168   2 Si  14       5.218460    3.064880   19.692700       4.0000     28.0855
  169   2 Si  14       9.152550   17.033000   19.296500       4.0000     28.0855
  170   2 Si  14      10.928700   15.265200   17.515800       4.0000     28.0855
  171   2 Si  14       9.173160   17.036300   23.623000       4.0000     28.0855
  172   2 Si  14      13.106400   10.917000   15.367300       4.0000     28.0855
  173   2 Si  14      13.505100   19.214500   21.469100       4.0000     28.0855
  174   2 Si  14      13.110900   19.618600   15.341400       4.0000     28.0855
  175   2 Si  14       4.819760   19.214400   21.448500       4.0000     28.0855
  176   2 Si  14       3.064570    5.218340   19.692900       4.0000     28.0855
  177   2 Si  14      19.214200    9.151950   17.115600       4.0000     28.0855
  178   2 Si  14      17.036300    9.173060   23.622500       4.0000     28.0855
  179   2 Si  14      15.252500   10.916600   17.509400       4.0000     28.0855
  180   2 Si  14      17.037000    9.151490   19.294400       4.0000     28.0855
  181   2 Si  14      15.278900   10.928000   13.187500       4.0000     28.0855
  182   2 Si  14      19.214500    4.819880   21.447800       4.0000     28.0855
  183   2 Si  14      19.612600   13.106000   15.339300       4.0000     28.0855
  184   2 Si  14      19.214300   13.504800   21.468900       4.0000     28.0855
  185   2 Si  14      10.871100   13.041200   15.367700       4.0000     28.0855
  186   2 Si  14       9.129960   11.287100   13.608700       4.0000     28.0855
  187   2 Si  14       5.218310   15.259900   23.224500       4.0000     28.0855
  188   2 Si  14       9.173500   23.544000   17.116100       4.0000     28.0855
  189   2 Si  14      13.106400    3.064840   23.224200       4.0000     28.0855
  190   2 Si  14       9.162740    6.990570   13.583100       4.0000     28.0855
  191   2 Si  14       0.889560    3.043710   19.692700       4.0000     28.0855
  192   3 O    8      24.353700    3.558640   12.216700       6.0000     15.9994
  193   3 O    8      20.874300    3.558720    0.079480       6.0000     15.9994
  194   3 O    8      20.874200    2.549560    6.187720       6.0000     15.9994
  195   3 O    8      18.324800    8.657750    2.628910       6.0000     15.9994
  196   3 O    8      15.775100    0.000040    8.737250       6.0000     15.9994
  197   3 O    8      18.324800   21.883500    3.638100       6.0000     15.9994
  198   3 O    8       2.549560   -0.000090    9.746550       6.0000     15.9994
  199   3 O    8       6.108240   20.874300    2.629010       6.0000     15.9994
  200   3 O    8       3.557110   12.220900    8.731230       6.0000     15.9994
  201   3 O    8      -0.000110    9.666960    2.628890       6.0000     15.9994
  202   3 O    8       3.558810    6.108260    9.746510       6.0000     15.9994
  203   3 O    8      12.216500    8.658150    3.639560       6.0000     15.9994
  204   3 O    8       2.549600   20.874300    6.187760       6.0000     15.9994
  205   3 O    8       3.558730   20.874300    0.079500       6.0000     15.9994
  206   3 O    8      -0.000000    2.549470    9.746490       6.0000     15.9994
  207   3 O    8      21.883500   18.324700    3.638210       6.0000     15.9994
  208   3 O    8       0.000270   15.775000    8.737230       6.0000     15.9994
  209   3 O    8       8.657780   18.325000    2.628860       6.0000     15.9994
  210   3 O    8       9.667030    6.108360    3.638450       6.0000     15.9994
  211   3 O    8      18.324700    2.549560    8.737210       6.0000     15.9994
  212   3 O    8      21.883500   14.766000    0.079480       6.0000     15.9994
  213   3 O    8      21.883500   15.775200    6.187670       6.0000     15.9994
  214   3 O    8       2.549790   18.324800    8.737540       6.0000     15.9994
  215   3 O    8       0.000040   20.874300    3.638230       6.0000     15.9994
  216   3 O    8      15.785900   18.338000    9.740250       6.0000     15.9994
  217   3 O    8      14.765800    6.108330    8.737150       6.0000     15.9994
  218   3 O    8       6.108250    9.666840    3.638150       6.0000     15.9994
  219   3 O    8       2.549540    9.667020    0.079490       6.0000     15.9994
  220   3 O    8       3.558080    9.666170    6.187050       6.0000     15.9994
  221   3 O    8       6.108280    3.558710    9.746380       6.0000     15.9994
  222   3 O    8       8.658850   12.215500    3.637800       6.0000     15.9994
  223   3 O    8       6.109720   14.763300    8.656490       6.0000     15.9994
  224   3 O    8      21.883500   12.216500    2.628990       6.0000     15.9994
  225   3 O    8      18.325000   15.775400    9.746440       6.0000     15.9994
  226   3 O    8      20.874300    0.000040    3.638200       6.0000     15.9994
  227   3 O    8      20.874300    6.108230    2.628990       6.0000     15.9994
  228   3 O    8      12.216400    3.558570    8.737340       6.0000     15.9994
  229   3 O    8       9.667010    2.549540    0.079520       6.0000     15.9994
  230   3 O    8       9.666980    3.558700    6.187760       6.0000     15.9994
  231   3 O    8      12.216500   21.883500    2.628990       6.0000     15.9994
  232   3 O    8      14.766000   21.883500    0.079480       6.0000     15.9994
  233   3 O    8      15.775100   21.883900    6.187410       6.0000     15.9994
  234   3 O    8       9.666980   -0.000000    2.629040       6.0000     15.9994
  235   3 O    8      12.467300   14.757400    9.478340       6.0000     15.9994
  236   3 O    8       8.657730   15.775300    0.079460       6.0000     15.9994
  237   3 O    8       8.648590   14.768100    6.190370       6.0000     15.9994
  238   3 O    8      14.763300   12.216900    9.745590       6.0000     15.9994
  239   3 O    8      14.768700    8.655460    6.184640       6.0000     15.9994
  240   3 O    8      15.775200    8.657720    0.079510       6.0000     15.9994
  241   3 O    8      19.079200    4.246460    1.941270       6.0000     15.9994
  242   3 O    8      20.186600    0.754410    8.049570       6.0000     15.9994
  243   3 O    8      19.079200    1.861740    4.326010       6.0000     15.9994
  244   3 O    8      22.571300    0.754400   10.434300       6.0000     15.9994
  245   3 O    8      16.463000    6.862570    1.941060       6.0000     15.9994
  246   3 O    8      17.570700   22.571800    8.049390       6.0000     15.9994
  247   3 O    8      16.463000   23.678700    4.325910       6.0000     15.9994
  248   3 O    8       0.754460   22.571400   10.434100       6.0000     15.9994
  249   3 O    8       1.861660    1.861780   11.541600       6.0000     15.9994
  250   3 O    8       7.970030   20.186600    0.833840       6.0000     15.9994
  251   3 O    8       4.234880   14.074200    6.872430       6.0000     15.9994
  252   3 O    8      22.571200   10.354700    0.833860       6.0000     15.9994
  253   3 O    8       4.246370    4.246410   11.541600       6.0000     15.9994
  254   3 O    8      10.355700    7.970650    5.433910       6.0000     15.9994
  255   3 O    8       1.861600   19.079200    4.325900       6.0000     15.9994
  256   3 O    8       0.754480   20.186700    8.049440       6.0000     15.9994
  257   3 O    8       4.246430   19.079200    1.941270       6.0000     15.9994
  258   3 O    8      23.678600   16.463000    4.326040       6.0000     15.9994
  259   3 O    8      22.571200   17.570400    8.049390       6.0000     15.9994
  260   3 O    8       6.862700   16.463000    1.941170       6.0000     15.9994
  261   3 O    8      16.463000    1.861750    6.942180       6.0000     15.9994
  262   3 O    8      23.678600   14.078300    1.941280       6.0000     15.9994
  263   3 O    8      20.186700   17.570300   10.434200       6.0000     15.9994
  264   3 O    8       1.861670   11.462200    1.941100       6.0000     15.9994
  265   3 O    8      17.574500   20.188800   10.435000       6.0000     15.9994
  266   3 O    8      14.078300    4.246430    6.942180       6.0000     15.9994
  267   3 O    8       7.970170   10.354800    5.433140       6.0000     15.9994
  268   3 O    8       5.353950    7.969920   10.434100       6.0000     15.9994
  269   3 O    8       4.246460   11.461700    4.325710       6.0000     15.9994
  270   3 O    8       5.351910   10.351500    8.046980       6.0000     15.9994
  271   3 O    8       7.970020    5.353430   10.434100       6.0000     15.9994
  272   3 O    8       6.863990   14.074300    4.322200       6.0000     15.9994
  273   3 O    8       7.972520   12.978200    8.067200       6.0000     15.9994
  274   3 O    8      16.468400   16.464800   11.546400       6.0000     15.9994
  275   3 O    8      20.186600   22.571300    5.433270       6.0000     15.9994
  276   3 O    8      20.186500    7.970020    0.833880       6.0000     15.9994
  277   3 O    8      11.462100    1.861770    1.941220       6.0000     15.9994
  278   3 O    8      10.354700    5.353860    8.049510       6.0000     15.9994
  279   3 O    8      11.462100    4.246510    4.325900       6.0000     15.9994
  280   3 O    8      14.078300   23.678600    1.941240       6.0000     15.9994
  281   3 O    8      12.972600    7.973770    8.049360       6.0000     15.9994
  282   3 O    8      14.078200    6.861800    4.325470       6.0000     15.9994
  283   3 O    8       1.860460   16.463500    6.941490       6.0000     15.9994
  284   3 O    8      10.354800   22.571300    0.833910       6.0000     15.9994
  285   3 O    8      14.082900   14.085600   11.531600       6.0000     15.9994
  286   3 O    8      12.973200   10.354300   10.429100       6.0000     15.9994
  287   3 O    8      22.571200   20.186500    5.433350       6.0000     15.9994
  288   3 O    8      18.404000    2.549580    0.000200       6.0000     15.9994
  289   3 O    8      21.883400    0.079270    6.108480       6.0000     15.9994
  290   3 O    8      21.883400    6.028970    0.158800       6.0000     15.9994
  291   3 O    8      18.404100    3.558640    6.267060       6.0000     15.9994
  292   3 O    8      18.404100    6.187450    3.638080       6.0000     15.9994
  293   3 O    8      18.245500    0.079310    9.746510       6.0000     15.9994
  294   3 O    8      18.404100   24.353700    2.629070       6.0000     15.9994
  295   3 O    8       0.079210    0.079370    8.737350       6.0000     15.9994
  296   3 O    8       3.558670   24.353700   12.216500       6.0000     15.9994
  297   3 O    8       6.028960   21.883400    0.158800       6.0000     15.9994
  298   3 O    8       2.546280   12.133400    6.264850       6.0000     15.9994
  299   3 O    8       0.079260    8.657820    0.158740       6.0000     15.9994
  300   3 O    8       2.549290    6.187530   12.216400       6.0000     15.9994
  301   3 O    8      12.300200    9.667950    6.113610       6.0000     15.9994
  302   3 O    8       3.558480   18.404800    6.266940       6.0000     15.9994
  303   3 O    8       0.079160   21.883400    6.108380       6.0000     15.9994
  304   3 O    8       2.549580   18.404000    0.000170       6.0000     15.9994
  305   3 O    8      24.353600   18.404000    2.629080       6.0000     15.9994
  306   3 O    8       0.079300   18.245300    9.746430       6.0000     15.9994
  307   3 O    8       6.187820   18.404200    3.638150       6.0000     15.9994
  308   3 O    8       8.658010    6.029200    6.108340       6.0000     15.9994
  309   3 O    8      24.353700   15.775200    0.000200       6.0000     15.9994
  310   3 O    8      20.874400   18.245500    6.108480       6.0000     15.9994
  311   3 O    8      18.404600   14.765500   12.216700       6.0000     15.9994
  312   3 O    8      24.353500   14.765900    6.267060       6.0000     15.9994
  313   3 O    8      20.874300   12.295800    0.158790       6.0000     15.9994
  314   3 O    8      24.353700   12.137200    3.638120       6.0000     15.9994
  315   3 O    8      18.248800   18.246200    8.736370       6.0000     15.9994
  316   3 O    8       3.558670   12.137200    0.000190       6.0000     15.9994
  317   3 O    8      15.775400    6.186830    6.266790       6.0000     15.9994
  318   3 O    8       6.029110    8.657240    6.107680       6.0000     15.9994
  319   3 O    8       6.029010    6.028850    8.737280       6.0000     15.9994
  320   3 O    8       6.187720   12.136400    2.628230       6.0000     15.9994
  321   3 O    8       6.018960   12.284900    9.733890       6.0000     15.9994
  322   3 O    8      12.137200    2.549560    6.267060       6.0000     15.9994
  323   3 O    8      12.137200    3.558650    0.000210       6.0000     15.9994
  324   3 O    8       6.187520    2.549460   12.216700       6.0000     15.9994
  325   3 O    8       8.657840    0.079290    0.158790       6.0000     15.9994
  326   3 O    8      12.137200   24.353700    3.638160       6.0000     15.9994
  327   3 O    8      12.296000    6.029620    9.745820       6.0000     15.9994
  328   3 O    8      12.137200    6.187780    2.629040       6.0000     15.9994
  329   3 O    8      15.775200   24.353700    0.000200       6.0000     15.9994
  330   3 O    8      14.766100    6.187590    0.000230       6.0000     15.9994
  331   3 O    8      18.245900   20.874600    6.108070       6.0000     15.9994
  332   3 O    8      12.295800   20.874300    0.158770       6.0000     15.9994
  333   3 O    8      14.766100   24.353800    6.267040       6.0000     15.9994
  334   3 O    8      14.765500   18.395900   12.210000       6.0000     15.9994
  335   3 O    8       9.664140   12.297900    6.110710       6.0000     15.9994
  336   3 O    8       9.666940   18.245500    0.158680       6.0000     15.9994
  337   3 O    8       6.187630   14.766100    0.000290       6.0000     15.9994
  338   3 O    8       6.120390   15.779300    6.184620       6.0000     15.9994
  339   3 O    8      12.286500   12.220300    8.658660       6.0000     15.9994
  340   3 O    8      15.774400   12.136700   12.217700       6.0000     15.9994
  341   3 O    8      18.245500    9.666910    0.158750       6.0000     15.9994
  342   3 O    8      20.112500    1.780450    1.859910       6.0000     15.9994
  343   3 O    8      22.652500    1.787760    7.968120       6.0000     15.9994
  344   3 O    8      20.112500    4.327810    4.407270       6.0000     15.9994
  345   3 O    8      20.105100    1.787760   10.515500       6.0000     15.9994
  346   3 O    8      16.544800    7.895630    4.406760       6.0000     15.9994
  347   3 O    8      16.536800   22.652700   10.515600       6.0000     15.9994
  348   3 O    8      16.544300   22.645300    1.859900       6.0000     15.9994
  349   3 O    8       1.787790   22.652500    7.968220       6.0000     15.9994
  350   3 O    8       4.327950    1.780470   10.508300       6.0000     15.9994
  351   3 O    8       7.888690   22.652600    1.867280       6.0000     15.9994
  352   3 O    8       1.783210   13.997500    7.974420       6.0000     15.9994
  353   3 O    8      22.652600    7.888680    1.867240       6.0000     15.9994
  354   3 O    8       1.780480    4.327790   10.508200       6.0000     15.9994
  355   3 O    8      10.436700   10.436100    4.401590       6.0000     15.9994
  356   3 O    8       1.787880   20.105000   10.515600       6.0000     15.9994
  357   3 O    8       4.327990   20.112600    4.407180       6.0000     15.9994
[...]
 flops    13 x     5 x   160         498121228800       0.0%    100.0%      0.0%
 flops  3958 x   172 x   779         543052292096       0.0%    100.0%      0.0%
 flops  3964 x   172 x   779         543875514368       0.0%    100.0%      0.0%
 flops   800 x   172 x   795         556148928000       0.0%    100.0%      0.0%
 flops   812 x   172 x   795         564491161920       0.0%    100.0%      0.0%
 flops   800 x   160 x   172        1096528896000       0.0%    100.0%      0.0%
 flops   800 x   172 x   160        1096528896000       0.0%    100.0%      0.0%
 flops   800 x   172 x   787        1101104921600       0.0%    100.0%      0.0%
 flops  3958 x   172 x   795        1108412252160       0.0%    100.0%      0.0%
 flops  3964 x   172 x   795        1110092513280       0.0%    100.0%      0.0%
 flops   812 x   172 x   160        1112976829440       0.0%    100.0%      0.0%
 flops   812 x   160 x   172        1112976829440       0.0%    100.0%      0.0%
 flops   812 x   172 x   787        1117621495424       0.0%    100.0%      0.0%
 flops    13 x    13 x   172        1645554130272       0.0%    100.0%      0.0%
 flops    13 x    32 x     5        1687119200000       0.0%    100.0%      0.0%
 flops     5 x    32 x    13        1687119200000       0.0%    100.0%      0.0%
 flops  3958 x   172 x   787        2194516836352       0.0%    100.0%      0.0%
 flops  3964 x   172 x   787        2197843542016       0.0%    100.0%      0.0%
 flops   800 x   160 x   779        2281211136000       0.0%    100.0%      0.0%
 flops   812 x   160 x   779        2315429303040       0.0%    100.0%      0.0%
 flops  3958 x   172 x   160        3482087546880       0.0%    100.0%      0.0%
 flops  3958 x   160 x   172        3482087546880       0.0%    100.0%      0.0%
 flops  3964 x   160 x   172        3487366103040       0.0%    100.0%      0.0%
 flops  3964 x   172 x   160        3487366103040       0.0%    100.0%      0.0%
 flops  3958 x   160 x   779        4546484305920       0.0%    100.0%      0.0%
 flops  3964 x   160 x   779        4553376399360       0.0%    100.0%      0.0%
 flops   800 x   160 x   795        4656130560000       0.0%    100.0%      0.0%
 flops   812 x   160 x   795        4725972518400       0.0%    100.0%      0.0%
 flops   800 x   160 x   160        9180241920000       0.0%    100.0%      0.0%
 flops   800 x   160 x   787        9218552832000       0.0%    100.0%      0.0%
 flops  3958 x   160 x   795        9279730483200       0.0%    100.0%      0.0%
 flops  3964 x   160 x   795        9293797785600       0.0%    100.0%      0.0%
 flops   812 x   160 x   160        9317945548800       0.0%    100.0%      0.0%
 flops   812 x   160 x   787        9356831124480       0.0%    100.0%      0.0%
 flops    13 x    13 x   160       13776732253440       0.0%    100.0%      0.0%
 flops  3958 x   160 x   787       18372699095040       0.0%    100.0%      0.0%
 flops  3964 x   160 x   787       18400550584320       0.0%    100.0%      0.0%
 flops  3958 x   160 x   160       29152360857600       0.0%    100.0%      0.0%
 flops  3964 x   160 x   160       29196553420800       0.0%    100.0%      0.0%
 flops    13 x    32 x    13       46457775520000       0.0%    100.0%      0.0%
 flops inhomo. stacks              48005005759776     100.0%      0.0%      0.0%
 flops total                       320.551599E+12      15.0%     85.0%      0.0%
 flops max/rank                     17.108195E+12      15.0%     85.0%      0.0%
 matmuls inhomo. stacks                    106980     100.0%      0.0%      0.0%
 matmuls total                         5640110301       0.0%    100.0%      0.0%
 number of processed stacks               7922175       1.4%     98.6%      0.0%
 average stack size                                     1.0     721.7       0.0
 marketing flops                   511.992448E+12
 -------------------------------------------------------------------------------
 # multiplications                           7613
 max memory usage/rank             983.379968E+06
 # max total images/rank                        5
 # max 3D layers                                1
 # MPI messages exchanged                 2131640
 MPI messages size (bytes):
  total size                         7.645549E+12
  min size                           0.000000E+00
  max size                          25.781856E+06
  average size                       3.586698E+06
 MPI breakdown and total messages size (bytes):
             size <=      128                 740                        0
       128 < size <=     8192                   0                        0
      8192 < size <=    32768                   0                        0
     32768 < size <=   131072                  20                   821504
    131072 < size <=  4194304             1258960             925362848384
   4194304 < size <= 16777216              779760            4407092834256
  16777216 < size                           92160            2313514008576
 -------------------------------------------------------------------------------

 *** WARNING in dbcsr_mm.F:294 :: Using a non-square number of MPI ranks ***
 *** might lead to poor performance. Used ranks: 20 Suggested: 16 36     ***

 -------------------------------------------------------------------------------
 -                                                                             -
 -                      DBCSR MESSAGE PASSING PERFORMANCE                      -
 -                                                                             -
 -------------------------------------------------------------------------------
 ROUTINE             CALLS      AVE VOLUME [Bytes]
 MP_Bcast               83                     12.
 MP_Allreduce        39227                    172.
 MP_Alltoall         27284                 350130.
 MP_ISend           282112                1460758.
 MP_IRecv           282112                1453635.
 -------------------------------------------------------------------------------

 -------------------------------------------------------------------------------
 -                                                                             -
 -                                GRID STATISTICS                              -
 -                                                                             -
 -------------------------------------------------------------------------------
 LP    KERNEL             BACKEND                              COUNT     PERCENT
 4     collocate ortho    REF                              144175480      56.97%
 4     integrate ortho    REF                               72087740      28.48%
 3     collocate ortho    REF                               20188428       7.98%
 3     integrate ortho    REF                               10094214       3.99%
 2     collocate ortho    REF                                3466592       1.37%
 2     integrate ortho    REF                                1733296       0.68%
 5     collocate ortho    REF                                 847344       0.33%
 5     integrate ortho    REF                                 423672       0.17%
 0     collocate general  REF                                  25320       0.01%
 6     collocate ortho    REF                                  18288       0.01%
 0     integrate general  REF                                  12660       0.01%
 6     integrate ortho    REF                                   9144       0.00%
 -------------------------------------------------------------------------------

 MEMORY| Estimated peak process memory [MiB]                                 939

 -------------------------------------------------------------------------------
 ----                             MULTIGRID INFO                            ----
 -------------------------------------------------------------------------------
 count for grid        1:         889157          cutoff [a.u.]          180.00
 count for grid        2:         374792          cutoff [a.u.]           60.00
 count for grid        3:         222312          cutoff [a.u.]           20.00
 count for grid        4:          23140          cutoff [a.u.]            6.67
 count for grid        5:              0          cutoff [a.u.]            2.22
 total gridlevel count  :        1509401

 -------------------------------------------------------------------------------
 -                                                                             -
 -                         MESSAGE PASSING PERFORMANCE                         -
 -                                                                             -
 -------------------------------------------------------------------------------

 ROUTINE             CALLS      AVE VOLUME [Bytes]
 MP_Group                5
 MP_Bcast            33530                 203701.
 MP_Allreduce        83455                   1582.
 MP_Sync               511
 MP_Alltoall          7888               41998475.
 MP_ISendRecv        43434                 151669.
 MP_Wait             84663
 MP_ISend            36648                1021295.
 MP_IRecv            36648                1018843.
 MP_Recv              1248                2028032.
 -------------------------------------------------------------------------------


 -------------------------------------------------------------------------------
 -                                                                             -
 -                           R E F E R E N C E S                               -
 -                                                                             -
 -------------------------------------------------------------------------------
 
 CP2K version 9.1, the CP2K developers group (2021).
 CP2K is freely available from https://www.cp2k.org/ .

 Kuehne,Thomas D.; Iannuzzi,Marcella; Del Ben,Mauro;
 Rybkin,Vladimir V.; Seewald,Patrick; Stein,Frederick; Laino,Teodoro;
 Khaliullin,Rustam Z.; Schuett,Ole; Schiffmann,Florian; Golze,Dorothea;
 Wilhelm,Jan; Chulkov,Sergey; Bani-Hashemian,Mohammad Hossein;
 Weber,Valery; Borstnik,Urban; Taillefumier,Mathieu;
 Jakobovits,Alice Shoshana; Lazzaro,Alfio; Pabst,Hans; Mueller,Tiziano;
 Schade,Robert; Guidon,Manuel; Andermatt,Samuel; Holmberg,Nico;
 Schenter,Gregory K.; Hehn,Anna; Bussy,Augustin; Belleflamme,Fabian;
 Tabacchi,Gloria; Gloess,Andreas; Lass,Michael; Bethune,Iain;
 Mundy,Christopher J.; Plessl,Christian; Watkins,Matt;
 VandeVondele,Joost; Krack,Matthias; Hutter,Juerg. 
 The Journal of Chemical Physics, 152 (19), (2020). 
 CP2K: An electronic structure and molecular dynamics software package -
 Quickstep: Efficient and accurate electronic structure calculations.
 https://doi.org/10.1063/5.0007045

 Goerigk, Lars; Hansen, Andreas; Bauer, Christoph; Ehrlich, Stephan;
 Najibi, Asim; Grimme, Stefan. , 19 (48), (2017). 
 A look at the density functional theory zoo with the advanced GMTKN55 database
 for general main group thermochemistry, kinetics and noncovalent interactions.
 https://doi.org/10.1039/C7CP04913G

 Schuett, Ole; Messmer, Peter; Hutter, Juerg; VandeVondele, Joost. 
 Electronic Structure Calculations on Graphics Processing Units, John
 Wiley & Sons, Ltd, 173-190 (2016). 
 GPU-Accelerated Sparse Matrix-Matrix Multiplication for
 Linear Scaling Density Functional Theory.
 https://doi.org/10.1002/9781118670712.ch8

 Heinecke, A; Henry, G; Hutchinson, M; Pabst, H. 
 Proceedings of Intl. Supercomputing Conference, 981-991 (2016). 
 LIBXSMM: Accelerating Small Matrix Multiplications
 by Runtime Code Generation.
 https://doi.org/10.1109/SC.2016.83

 Borstnik, U; VandeVondele, J; Weber, V; Hutter, J. 
 PARALLEL COMPUTING, 40 (5-6), 47-58 (2014). 
 Sparse matrix multiplication: The distributed block-compressed sparse
 row library.
 https://doi.org/10.1016/j.parco.2014.03.012

 Hutter, J; Iannuzzi, M; Schiffmann, F; VandeVondele, J. 
 WIREs Comput Mol Sci., 4 (1), 15-25 (2014). 
 CP2K: atomistic simulations of condensed matter systems.
 https://doi.org/10.1002/wcms.1159

 Grimme, S; Ehrlich, S; Goerigk, L. 
 JOURNAL OF COMPUTATIONAL CHEMISTRY, 32, 1456 (2011). 
 Effect of the damping function in dispersion corrected density functional theory.
 https://doi.org/10.1002/jcc.21759

 Grimme, S; Antony, J; Ehrlich, S; Krieg, H. 
 JOURNAL OF CHEMICAL PHYSICS, 132 (15), 154104 (2010). 
 A consistent and accurate ab initio parametrization of density
 functional dispersion correction (DFT-D) for the 94 elements H-Pu.
 https://doi.org/10.1063/1.3382344

 VandeVondele, J; Hutter, J. 
 JOURNAL OF CHEMICAL PHYSICS, 127 (11), 114105 (2007). 
 Gaussian basis sets for accurate calculations on molecular systems in
 gas and condensed phases.
 https://doi.org/10.1063/1.2770708

 Krack, M. 
 THEORETICAL CHEMISTRY ACCOUNTS, 114 (1-3), 145-152 (2005). 
 Pseudopotentials for H to Kr optimized for gradient-corrected
 exchange-correlation functionals.
 https://doi.org/10.1007/s00214-005-0655-y

 VandeVondele, J; Krack, M; Mohamed, F; Parrinello, M; Chassaing, T;
 Hutter, J. COMPUTER PHYSICS COMMUNICATIONS, 167 (2), 103-128 (2005). 
 QUICKSTEP: Fast and accurate density functional calculations using a
 mixed Gaussian and plane waves approach.
 https://doi.org/10.1016/j.cpc.2004.12.014

 Frigo, M; Johnson, SG. 
 PROCEEDINGS OF THE IEEE, 93 (2), 216-231 (2005). 
 The design and implementation of FFTW3.
 https://doi.org/10.1109/JPROC.2004.840301

 VandeVondele, J; Hutter, J. 
 JOURNAL OF CHEMICAL PHYSICS, 118 (10), 4365-4369 (2003). 
 An efficient orbital transformation method for electronic structure
 calculations.
 https://doi.org/10.1063/1.1543154

 Hartwigsen, C; Goedecker, S; Hutter, J. 
 PHYSICAL REVIEW B, 58 (7), 3641-3662 (1998). 
 Relativistic separable dual-space Gaussian pseudopotentials from H to Rn.
 https://doi.org/10.1103/PhysRevB.58.3641

 Lippert, G; Hutter, J; Parrinello, M. 
 MOLECULAR PHYSICS, 92 (3), 477-487 (1997). 
 A hybrid Gaussian and plane wave density functional scheme.
 https://doi.org/10.1080/002689797170220

 Perdew, JP; Burke, K; Ernzerhof, M. 
 PHYSICAL REVIEW LETTERS, 77 (18), 3865-3868 (1996). 
 Generalized gradient approximation made simple.
 https://doi.org/10.1103/PhysRevLett.77.3865

 Goedecker, S; Teter, M; Hutter, J. 
 PHYSICAL REVIEW B, 54 (3), 1703-1710 (1996). 
 Separable dual-space Gaussian pseudopotentials.
 https://doi.org/10.1103/PhysRevB.54.1703


 -------------------------------------------------------------------------------
 -                                                                             -
 -                                T I M I N G                                  -
 -                                                                             -
 -------------------------------------------------------------------------------
 SUBROUTINE                       CALLS  ASD         SELF TIME        TOTAL TIME
                                MAXIMUM       AVERAGE  MAXIMUM  AVERAGE  MAXIMUM
 CP2K                                 1  1.0    0.031    0.033 5432.958 5432.971
 qs_energies                          1  2.0    0.001    0.002 5431.444 5431.457
 scf_env_do_scf                       1  3.0    0.001    0.001 5424.725 5424.738
 scf_env_do_scf_inner_loop          507  4.0    0.014    0.043 5328.099 5328.571
 qs_ks_update_qs_env                509  5.0    0.005    0.005 2005.367 2007.092
 rebuild_ks_matrix                  507  6.0    0.004    0.004 2003.178 2004.907
 qs_ks_build_kohn_sham_matrix       507  7.0    0.089    0.096 2003.174 2004.904
 qs_scf_new_mos                     507  5.0    0.004    0.006 1995.633 1997.283
 qs_scf_loop_do_ot                  507  6.0    0.005    0.006 1995.628 1997.279
 ot_scf_mini                        507  7.0    0.022    0.027 1872.418 1873.817
 dbcsr_multiply_generic            7613  9.9    0.636    0.663 1800.477 1804.887
 multiply_cannon                   7613 10.9    0.917    1.289 1532.978 1548.152
 multiply_cannon_loop              7613 11.9    1.751    2.334 1484.568 1504.603
 qs_rho_update_rho                  508  5.0    0.003    0.003 1334.902 1336.070
 calculate_rho_elec                 508  6.0    2.601    2.748 1334.900 1336.067
 multiply_cannon_multrec          76130 12.9 1016.643 1090.413 1016.772 1090.553
 grid_collocate_task_list           508  7.0  952.780  978.674  952.780  978.674
 qs_vxc_create                      507  8.0    0.012    0.014  970.646  971.093
 ot_mini                            507  8.0    0.004    0.005  958.067  960.535
 pw_transfer                       8124  9.4    0.793    0.935  900.433  914.964
 fft_wrap_pw1pw2                   7110 10.5    0.112    0.126  886.236  900.595
 fft_wrap_pw1pw2_180               4062 11.8   74.759   77.609  853.664  868.043
 sum_up_and_integrate               254  8.0    1.659    1.751  813.512  813.680
 integrate_v_rspace                 254  9.0    0.012    0.016  811.852  811.990
 xc_rho_set_and_dset_create         507 10.0    5.434    5.756  708.926  725.963
 fft3d_ps                          7110 12.5  354.170  366.717  669.134  685.184
 grid_integrate_task_list           254 10.0  659.051  668.754  659.051  668.754
 xc_vxc_pw_create                   254  9.0   10.459   13.617  607.418  607.826
 mp_waitall_1                    535247 13.8  534.570  559.022  534.570  559.022
 ot_new_cg_direction                254  9.0    0.006    0.010  511.221  511.244
 apply_preconditioner_dbcsr         256 10.0    0.001    0.001  508.379  509.970
 apply_all                          256 11.0    0.505    0.528  508.378  509.970
 multiply_cannon_metrocomm3       76130 12.9    0.704    0.915  463.717  485.337
 qs_ot_get_p                        509  8.0    0.005    0.006  467.847  472.043
 qs_ot_get_derivative               254  9.0    0.004    0.007  443.757  445.450
 density_rs2pw                      508  7.0    0.049    0.055  366.848  388.602
 xc_exc_calc                        253  9.0    1.276    1.346  363.216  363.259
 xc_functional_eval                 507 11.0    0.008    0.009  320.962  338.048
 pbe_lda_eval                       507 12.0  320.955  338.042  320.955  338.042
 qs_ot_get_derivative_diag          249 10.0    0.011    0.015  306.067  307.872
 qs_ot_p2m_diag                     500  9.0    6.729    7.284  299.313  299.982
 cp_fm_syevd                        506 11.0    0.008    0.009  280.216  280.328
 cp_fm_syevd_base                   506 12.0  279.864  279.976  279.864  279.976
 cp_dbcsr_syevd                     504 10.0    0.047    0.057  248.935  248.998
 x_to_yz                           3553 14.3  150.645  154.500  208.322  228.933
 qs_ot_get_orbitals                 507  8.0    0.004    0.008  225.027  225.593
 rs_pw_transfer                    3813  9.0    0.071    0.081  191.947  213.827
 make_m2s                         15226 10.9    0.575    0.625  187.188  189.401
 potential_pw2rs                    254 10.0    0.136    0.168  137.819  137.977
 make_images                      15226 11.9    3.578    3.771  131.532  134.315
 calculate_dm_sparse                508  7.0    0.004    0.006  123.469  124.185
 mp_alltoall_z22v                  7110 14.5  102.830  122.528  102.830  122.528
 yz_to_x                           3557 12.6   61.231   63.866  106.384  119.450
 mp_waitany                       36648 11.0   90.795  118.810   90.795  118.810
 -------------------------------------------------------------------------------

 The number of warnings for this run is : 2
 
 -------------------------------------------------------------------------------
  **** **** ******  **  PROGRAM ENDED AT                 2022-09-04 19:19:49.573
 ***** ** ***  *** **   PROGRAM RAN ON             node1974.palmetto.clemson.edu
 **    ****   ******    PROGRAM RAN BY                                   xiutinc
 ***** **    ** ** **   PROGRAM PROCESS ID                                846219
  **** **  *******  **  PROGRAM STOPPED IN    /scratch1/xiutinc/CP2K-97009.pbs02
