 DBCSR| CPU Multiplication driver                                           XSMM (U)
 DBCSR| Multrec recursion limit                                              512 (U)
 DBCSR| Multiplication stack size                                           1000 (D)
 DBCSR| Maximum elements for images                                    UNLIMITED (U)
 DBCSR| Multiplicative factor virtual images                                   1 (U)
 DBCSR| Use multiplication densification                                       T (D)
 DBCSR| Multiplication size stacks                                             3 (U)
 DBCSR| Use memory pool for CPU allocation                                     F (U)
 DBCSR| Number of 3D layers                                               SINGLE (U)
 DBCSR| Use MPI memory allocation                                              F (U)
 DBCSR| Use RMA algorithm                                                      F (U)
 DBCSR| Use Communication thread                                               T (U)
 DBCSR| Communication thread load                                             87 (D)
 DBCSR| MPI: My process id                                                     0
 DBCSR| MPI: Number of processes                                              48
 DBCSR| OMP: Current number of threads                                         1
 DBCSR| OMP: Max number of threads                                             1
 DBCSR| Split modifier for TAS multiplication algorithm                  1.0E+00 (U)


  **** **** ******  **  PROGRAM STARTED AT               2025-01-29 16:04:25.982
 ***** ** ***  *** **   PROGRAM STARTED ON                     c0226.ten.osc.edu
 **    ****   ******    PROGRAM STARTED BY                               xiutinc
 ***** **    ** ** **   PROGRAM PROCESS ID                               3516445
  **** **  *******  **  PROGRAM STARTED IN /fs/scratch/PAS2536/xiutinc/396094.ad
                                           g02_01_02_propanol

 CP2K| version string:                                       CP2K version 2023.2
 CP2K| source code revision number:                                  git:65cca6c
 CP2K| cp2kflags: omp libint fftw3 libxc parallel scalapack xsmm plumed2 mkl sir
 CP2K|            ius
 CP2K| is freely available from                            https://www.cp2k.org/
 CP2K| Program compiled at                          Mon Oct 14 13:01:09 EDT 2024
 CP2K| Program compiled on                             cardinal-rw02.ten.osc.edu
 CP2K| Program compiled for                       linux-rhel9-sapphirerapids-gcc
 CP2K| Data directory path    /apps/spack/0.21/cardinal/linux-rhel9-sapphirerapi
 CP2K| Input file name                                           intE07_g_sp.inp

 GLOBAL| Force Environment number                                              1
 GLOBAL| Basis set file name                                          BASIS_file
 GLOBAL| Potential file name                                     POTENTIALS_file
 GLOBAL| MM Potential file name                                     MM_POTENTIAL
 GLOBAL| Coordinate file name                                  ./intE07_g_sp.xyz
 GLOBAL| Method name                                                        CP2K
 GLOBAL| Project name                                                intE07_g_sp
 GLOBAL| Run type                                                         ENERGY
 GLOBAL| FFT library                                                       FFTW3
 GLOBAL| Diagonalization library                                       ScaLAPACK
 GLOBAL| DGEMM library                                                      BLAS
 GLOBAL| Orthonormality check for eigenvectors                          DISABLED
 GLOBAL| Matrix multiplication library                                 ScaLAPACK
 GLOBAL| All-to-all communication in single precision                          F
 GLOBAL| FFTs using library dependent lengths                                  F
 GLOBAL| Grid backend                                                       AUTO
 GLOBAL| Global print level                                               MEDIUM
 GLOBAL| MPI I/O enabled                                                       T
 GLOBAL| Total number of message passing processes                            48
 GLOBAL| Number of threads for this process                                    1
 GLOBAL| This output is from process                                           0
 GLOBAL| Stack size for threads created by OpenMP (OMP_STACKSIZE)        default
 GLOBAL| CPU model name                            Intel(R) Xeon(R) CPU Max 9470
 GLOBAL| CPUID                                                              1003

 MEMORY| system memory details [Kb]
 MEMORY|                        rank 0           min           max       average
 MEMORY| MemTotal            662060564     662060564     662060564     662060564
 MEMORY| MemFree             631148948     631148948     631152600     631150247
 MEMORY| Buffers                284236        284236        284236        284236
 MEMORY| Cached                2431448       2431100       2431448       2431315
 MEMORY| Slab                   975208        974616        975208        975017
 MEMORY| SReclaimable           228692        228564        228692        228648
 MEMORY| MemLikelyFree       634093324     634093324     634096500     634094446


 *** Fundamental physical constants (SI units) ***

 *** Literature: B. J. Mohr and B. N. Taylor,
 ***             CODATA recommended values of the fundamental physical
 ***             constants: 2006, Web Version 5.1
 ***             http://physics.nist.gov/constants

 Speed of light in vacuum [m/s]                             2.99792458000000E+08
 Magnetic constant or permeability of vacuum [N/A**2]       1.25663706143592E-06
 Electric constant or permittivity of vacuum [F/m]          8.85418781762039E-12
 Planck constant (h) [J*s]                                  6.62606896000000E-34
 Planck constant (h-bar) [J*s]                              1.05457162825177E-34
 Elementary charge [C]                                      1.60217648700000E-19
 Electron mass [kg]                                         9.10938215000000E-31
 Electron g factor [ ]                                     -2.00231930436220E+00
 Proton mass [kg]                                           1.67262163700000E-27
 Fine-structure constant                                    7.29735253760000E-03
 Rydberg constant [1/m]                                     1.09737315685270E+07
 Avogadro constant [1/mol]                                  6.02214179000000E+23
 Boltzmann constant [J/K]                                   1.38065040000000E-23
 Atomic mass unit [kg]                                      1.66053878200000E-27
 Bohr radius [m]                                            5.29177208590000E-11

 *** Conversion factors ***

 [u] -> [a.u.]                                              1.82288848426455E+03
 [Angstrom] -> [Bohr] = [a.u.]                              1.88972613288564E+00
 [a.u.] = [Bohr] -> [Angstrom]                              5.29177208590000E-01
 [a.u.] -> [s]                                              2.41888432650478E-17
 [a.u.] -> [fs]                                             2.41888432650478E-02
 [a.u.] -> [J]                                              4.35974393937059E-18
 [a.u.] -> [N]                                              8.23872205491840E-08
 [a.u.] -> [K]                                              3.15774647902944E+05
 [a.u.] -> [kJ/mol]                                         2.62549961709828E+03
 [a.u.] -> [kcal/mol]                                       6.27509468713739E+02
 [a.u.] -> [Pa]                                             2.94210107994716E+13
 [a.u.] -> [bar]                                            2.94210107994716E+08
 [a.u.] -> [atm]                                            2.90362800883016E+08
 [a.u.] -> [eV]                                             2.72113838565563E+01
 [a.u.] -> [Hz]                                             6.57968392072181E+15
 [a.u.] -> [1/cm] (wave numbers)                            2.19474631370540E+05
 [a.u./Bohr**2] -> [1/cm]                                   5.14048714338585E+03
 

 CELL_TOP| Volume [angstrom^3]:                                     14585.804391
 CELL_TOP| Vector a [angstrom    24.433     0.000     0.000   |a| =    24.433000
 CELL_TOP| Vector b [angstrom     0.000    24.433     0.000   |b| =    24.433000
 CELL_TOP| Vector c [angstrom     0.000     0.000    24.433   |c| =    24.433000
 CELL_TOP| Angle (b,c), alpha [degree]:                                90.000000
 CELL_TOP| Angle (a,c), beta  [degree]:                                90.000000
 CELL_TOP| Angle (a,b), gamma [degree]:                                90.000000
 CELL_TOP| Numerically orthorhombic:                                         YES
 CELL_TOP| Periodicity                                                       XYZ

 CELL| Volume [angstrom^3]:                                         14585.804391
 CELL| Vector a [angstrom]:      24.433     0.000     0.000   |a| =    24.433000
 CELL| Vector b [angstrom]:       0.000    24.433     0.000   |b| =    24.433000
 CELL| Vector c [angstrom]:       0.000     0.000    24.433   |c| =    24.433000
 CELL| Angle (b,c), alpha [degree]:                                    90.000000
 CELL| Angle (a,c), beta  [degree]:                                    90.000000
 CELL| Angle (a,b), gamma [degree]:                                    90.000000
 CELL| Numerically orthorhombic:                                             YES
 CELL| Periodicity                                                           XYZ

 CELL_REF| Volume [angstrom^3]:                                     14585.804391
 CELL_REF| Vector a [angstrom    24.433     0.000     0.000   |a| =    24.433000
 CELL_REF| Vector b [angstrom     0.000    24.433     0.000   |b| =    24.433000
 CELL_REF| Vector c [angstrom     0.000     0.000    24.433   |c| =    24.433000
 CELL_REF| Angle (b,c), alpha [degree]:                                90.000000
 CELL_REF| Angle (a,c), beta  [degree]:                                90.000000
 CELL_REF| Angle (a,b), gamma [degree]:                                90.000000
 CELL_REF| Numerically orthorhombic:                                         YES
 CELL_REF| Periodicity                                                       XYZ

 *******************************************************************************
 *******************************************************************************
 **                                                                           **
 **     #####                         ##              ##                      **
 **    ##   ##            ##          ##              ##                      **
 **   ##     ##                       ##            ######                    **
 **   ##     ##  ##   ##  ##   #####  ##  ##   ####   ##    #####    #####    **
 **   ##     ##  ##   ##  ##  ##      ## ##   ##      ##   ##   ##  ##   ##   **
 **   ##  ## ##  ##   ##  ##  ##      ####     ###    ##   ######   ######    **
 **    ##  ###   ##   ##  ##  ##      ## ##      ##   ##   ##       ##        **
 **     #######   #####   ##   #####  ##  ##  ####    ##    #####   ##        **
 **           ##                                                    ##        **
 **                                                                           **
 **                                                ... make the atoms dance   **
 **                                                                           **
 **            Copyright (C) by CP2K developers group (2000-2023)             **
 **                      J. Chem. Phys. 152, 194103 (2020)                    **
 **                                                                           **
 *******************************************************************************

 DFT| Spin restricted Kohn-Sham (RKS) calculation                            RKS
 DFT| Multiplicity                                                             1
 DFT| Number of spin states                                                    1
 DFT| Charge                                                                   0
 DFT| Self-interaction correction (SIC)                                       NO
 DFT| Cutoffs: density                                              1.000000E-10
 DFT|          gradient                                             1.000000E-10
 DFT|          tau                                                  1.000000E-10
 DFT|          cutoff_smoothing_range                               0.000000E+00
 DFT| XC density smoothing                                                  NONE
 DFT| XC derivatives                                                          PW

 FUNCTIONAL| PBE:
 FUNCTIONAL| J.P.Perdew, K.Burke, M.Ernzerhof, Phys. Rev. Letter, vol. 77, n 18,
 FUNCTIONAL|  pp. 3865-3868, (1996){spin unpolarized}                           

 vdW POTENTIAL|                                                   Pair Potential
 vdW POTENTIAL|          DFT-D3 (Version 3.1)
 vdW POTENTIAL|          Potential Form: S. Grimme et al, JCP 132: 154104 (2010)
 vdW POTENTIAL|          BJ Damping: S. Grimme et al, JCC 32: 1456 (2011)
 vdW POTENTIAL|          Cutoff Radius [Bohr]:                             20.00
 vdW POTENTIAL|          s6 Scaling Factor:                               1.0000
 vdW POTENTIAL|          a1 Damping Factor:                               0.4289
 vdW POTENTIAL|          s8 Scaling Factor:                               0.7875
 vdW POTENTIAL|          a2 Damping Factor:                               4.4407
 vdW POTENTIAL|          Cutoff for CN calculation:                   0.1000E-05

 QS| Method:                                                                 GPW
 QS| Density plane wave grid type                        NON-SPHERICAL FULLSPACE
 QS| Number of grid levels:                                                    5
 QS| Density cutoff [a.u.]:                                                180.0
 QS| Multi grid cutoff [a.u.]: 1) grid level                               180.0
 QS|                           2) grid level                                60.0
 QS|                           3) grid level                                20.0
 QS|                           4) grid level                                 6.7
 QS|                           5) grid level                                 2.2
 QS| Grid level progression factor:                                          3.0
 QS| Relative density cutoff [a.u.]:                                        40.0
 QS| Interaction thresholds: eps_pgf_orb:                                1.0E-05
 QS|                         eps_filter_matrix:                          0.0E+00
 QS|                         eps_core_charge:                            1.0E-12
 QS|                         eps_rho_gspace:                             1.0E-10
 QS|                         eps_rho_rspace:                             1.0E-10
 QS|                         eps_gvg_rspace:                             1.0E-05
 QS|                         eps_ppl:                                    1.0E-02
 QS|                         eps_ppnl:                                   1.0E-07


 ATOMIC KIND INFORMATION

  1. Atomic kind: Ti                                    Number of atoms:       1

     Orbital Basis Set                                    DZVP-MOLOPT-SR-GTH-q12

       Number of orbital shell sets:                                           1
       Number of orbital shells:                                               8
       Number of primitive Cartesian functions:                                6
       Number of Cartesian basis functions:                                   31
       Number of spherical basis functions:                                   26
       Norm type:                                                              2

       Normalised Cartesian orbitals:

                        Set   Shell   Orbital            Exponent    Coefficient

                          1       1    2s                7.884570       0.015554
                                                         3.894698       0.963603
                                                         1.513589      -0.631435
                                                         0.596768      -0.343022
                                                         0.222222      -0.006534
                                                         0.077078       0.007652

                          1       2    3s                7.884570      -0.009340
                                                         3.894698       0.212624
                                                         1.513589      -0.258368
                                                         0.596768      -0.226206
                                                         0.222222       0.039438
                                                         0.077078       0.107179

                          1       3    4s                7.884570       0.276563
                                                         3.894698       0.105452
                                                         1.513589       0.085149
                                                         0.596768       0.882541
                                                         0.222222      -0.696223
                                                         0.077078       0.156638

                          1       4    3px               7.884570      -2.034794
                                                         3.894698       0.782008
                                                         1.513589       1.253903
                                                         0.596768       0.347823
                                                         0.222222       0.016778
                                                         0.077078      -0.000433
                          1       4    3py               7.884570      -2.034794
                                                         3.894698       0.782008
                                                         1.513589       1.253903
                                                         0.596768       0.347823
                                                         0.222222       0.016778
                                                         0.077078      -0.000433
                          1       4    3pz               7.884570      -2.034794
                                                         3.894698       0.782008
                                                         1.513589       1.253903
                                                         0.596768       0.347823
                                                         0.222222       0.016778
                                                         0.077078      -0.000433

                          1       5    4px               7.884570       0.376572
                                                         3.894698      -0.182875
                                                         1.513589      -0.474776
                                                         0.596768      -0.081757
                                                         0.222222       0.064432
                                                         0.077078       0.047279
                          1       5    4py               7.884570       0.376572
                                                         3.894698      -0.182875
                                                         1.513589      -0.474776
                                                         0.596768      -0.081757
                                                         0.222222       0.064432
                                                         0.077078       0.047279
                          1       5    4pz               7.884570       0.376572
                                                         3.894698      -0.182875
                                                         1.513589      -0.474776
                                                         0.596768      -0.081757
                                                         0.222222       0.064432
                                                         0.077078       0.047279

                          1       6    4dx2              7.884570       3.047350
                                                         3.894698       3.289529
                                                         1.513589       1.060616
                                                         0.596768       0.249930
                                                         0.222222       0.038806
                                                         0.077078       0.002319
                          1       6    4dxy              7.884570       5.278165
                                                         3.894698       5.697631
                                                         1.513589       1.837041
                                                         0.596768       0.432892
                                                         0.222222       0.067214
                                                         0.077078       0.004017
                          1       6    4dxz              7.884570       5.278165
                                                         3.894698       5.697631
                                                         1.513589       1.837041
                                                         0.596768       0.432892
                                                         0.222222       0.067214
                                                         0.077078       0.004017
                          1       6    4dy2              7.884570       3.047350
                                                         3.894698       3.289529
                                                         1.513589       1.060616
                                                         0.596768       0.249930
                                                         0.222222       0.038806
                                                         0.077078       0.002319
                          1       6    4dyz              7.884570       5.278165
                                                         3.894698       5.697631
                                                         1.513589       1.837041
                                                         0.596768       0.432892
                                                         0.222222       0.067214
                                                         0.077078       0.004017
                          1       6    4dz2              7.884570       3.047350
                                                         3.894698       3.289529
                                                         1.513589       1.060616
                                                         0.596768       0.249930
                                                         0.222222       0.038806
                                                         0.077078       0.002319

                          1       7    5dx2              7.884570      -2.119015
                                                         3.894698      -1.237751
                                                         1.513589      -0.746777
                                                         0.596768      -0.071514
                                                         0.222222       0.004086
                                                         0.077078       0.017595
                          1       7    5dxy              7.884570      -3.670241
                                                         3.894698      -2.143848
                                                         1.513589      -1.293455
                                                         0.596768      -0.123865
                                                         0.222222       0.007077
                                                         0.077078       0.030475
                          1       7    5dxz              7.884570      -3.670241
                                                         3.894698      -2.143848
                                                         1.513589      -1.293455
                                                         0.596768      -0.123865
                                                         0.222222       0.007077
                                                         0.077078       0.030475
                          1       7    5dy2              7.884570      -2.119015
                                                         3.894698      -1.237751
                                                         1.513589      -0.746777
                                                         0.596768      -0.071514
                                                         0.222222       0.004086
                                                         0.077078       0.017595
                          1       7    5dyz              7.884570      -3.670241
                                                         3.894698      -2.143848
                                                         1.513589      -1.293455
                                                         0.596768      -0.123865
                                                         0.222222       0.007077
                                                         0.077078       0.030475
                          1       7    5dz2              7.884570      -2.119015
                                                         3.894698      -1.237751
                                                         1.513589      -0.746777
                                                         0.596768      -0.071514
                                                         0.222222       0.004086
                                                         0.077078       0.017595

                          1       8    5fx3              7.884570      -0.342058
                                                         3.894698       0.375798
                                                         1.513589      -0.706469
                                                         0.596768      -0.229994
                                                         0.222222      -0.012723
                                                         0.077078       0.003932
                          1       8    5fx2y             7.884570      -0.764866
                                                         3.894698       0.840310
                                                         1.513589      -1.579712
                                                         0.596768      -0.514282
                                                         0.222222      -0.028450
                                                         0.077078       0.008792
                          1       8    5fx2z             7.884570      -0.764866
                                                         3.894698       0.840310
                                                         1.513589      -1.579712
                                                         0.596768      -0.514282
                                                         0.222222      -0.028450
                                                         0.077078       0.008792
                          1       8    5fxy2             7.884570      -0.764866
                                                         3.894698       0.840310
                                                         1.513589      -1.579712
                                                         0.596768      -0.514282
                                                         0.222222      -0.028450
                                                         0.077078       0.008792
                          1       8    5fxyz             7.884570      -1.324787
                                                         3.894698       1.455460
                                                         1.513589      -2.736142
                                                         0.596768      -0.890763
                                                         0.222222      -0.049276
                                                         0.077078       0.015229
                          1       8    5fxz2             7.884570      -0.764866
                                                         3.894698       0.840310
                                                         1.513589      -1.579712
                                                         0.596768      -0.514282
                                                         0.222222      -0.028450
                                                         0.077078       0.008792
                          1       8    5fy3              7.884570      -0.342058
                                                         3.894698       0.375798
                                                         1.513589      -0.706469
                                                         0.596768      -0.229994
                                                         0.222222      -0.012723
                                                         0.077078       0.003932
                          1       8    5fy2z             7.884570      -0.764866
                                                         3.894698       0.840310
                                                         1.513589      -1.579712
                                                         0.596768      -0.514282
                                                         0.222222      -0.028450
                                                         0.077078       0.008792
                          1       8    5fyz2             7.884570      -0.764866
                                                         3.894698       0.840310
                                                         1.513589      -1.579712
                                                         0.596768      -0.514282
                                                         0.222222      -0.028450
                                                         0.077078       0.008792
                          1       8    5fz3              7.884570      -0.342058
                                                         3.894698       0.375798
                                                         1.513589      -0.706469
                                                         0.596768      -0.229994
                                                         0.222222      -0.012723
                                                         0.077078       0.003932

       Atomic covalent radius [Angstrom]:                                  1.320

       Atomic van der Waals radius [Angstrom]:                             1.760

     GTH Potential information for                                   GTH-PBE-q12

       Description:                       Goedecker-Teter-Hutter pseudopotential
                                           Goedecker et al., PRB 54, 1703 (1996)
                                          Hartwigsen et al., PRB 58, 3641 (1998)
                                                      Krack, TCA 114, 145 (2005)

       Gaussian exponent of the core charge distribution:               3.462604
       Electronic configuration (s p d ...):                           4   6   2

       Parameters of the local part of the GTH pseudopotential:

                          rloc        C1          C2          C3          C4
                        0.380000    8.711442   -0.700287

       Parameters of the non-local part of the GTH pseudopotential:

                   l      r(l)      h(i,j,l)

                   0    0.337771    2.575264    3.692971
                                    3.692971   -4.767605
                   1    0.242531   -4.630541    8.870875
                                    8.870875  -10.496161
                   2    0.243317   -9.406653

  2. Atomic kind: Si                                    Number of atoms:     190

     Orbital Basis Set                                     DZVP-MOLOPT-SR-GTH-q4

       Number of orbital shell sets:                                           1
       Number of orbital shells:                                               5
       Number of primitive Cartesian functions:                                4
       Number of Cartesian basis functions:                                   14
       Number of spherical basis functions:                                   13
       Norm type:                                                              2

       Normalised Cartesian orbitals:

                        Set   Shell   Orbital            Exponent    Coefficient

                          1       1    2s                1.256768       0.294045
                                                         0.506394      -0.015884
                                                         0.238884      -0.207657
                                                         0.087337      -0.036225

                          1       2    3s                1.256768      -1.532347
                                                         0.506394       0.524539
                                                         0.238884       0.025013
                                                         0.087337      -0.052203

                          1       3    3px               1.256768       0.152274
                                                         0.506394      -0.154145
                                                         0.238884      -0.115581
                                                         0.087337      -0.028372
                          1       3    3py               1.256768       0.152274
                                                         0.506394      -0.154145
                                                         0.238884      -0.115581
                                                         0.087337      -0.028372
                          1       3    3pz               1.256768       0.152274
                                                         0.506394      -0.154145
                                                         0.238884      -0.115581
                                                         0.087337      -0.028372

                          1       4    4px               1.256768       0.313378
                                                         0.506394      -0.415360
                                                         0.238884      -0.022539
                                                         0.087337       0.078473
                          1       4    4py               1.256768       0.313378
                                                         0.506394      -0.415360
                                                         0.238884      -0.022539
                                                         0.087337       0.078473
                          1       4    4pz               1.256768       0.313378
                                                         0.506394      -0.415360
                                                         0.238884      -0.022539
                                                         0.087337       0.078473

                          1       5    4dx2              1.256768       0.325879
                                                         0.506394       0.163831
                                                         0.238884       0.044076
                                                         0.087337       0.010608
                          1       5    4dxy              1.256768       0.564439
                                                         0.506394       0.283764
                                                         0.238884       0.076342
                                                         0.087337       0.018373
                          1       5    4dxz              1.256768       0.564439
                                                         0.506394       0.283764
                                                         0.238884       0.076342
                                                         0.087337       0.018373
                          1       5    4dy2              1.256768       0.325879
                                                         0.506394       0.163831
                                                         0.238884       0.044076
                                                         0.087337       0.010608
                          1       5    4dyz              1.256768       0.564439
                                                         0.506394       0.283764
                                                         0.238884       0.076342
                                                         0.087337       0.018373
                          1       5    4dz2              1.256768       0.325879
                                                         0.506394       0.163831
                                                         0.238884       0.044076
                                                         0.087337       0.010608

       Atomic covalent radius [Angstrom]:                                  1.110

       Atomic van der Waals radius [Angstrom]:                             2.100

     GTH Potential information for                                    GTH-PBE-q4

       Description:                       Goedecker-Teter-Hutter pseudopotential
                                           Goedecker et al., PRB 54, 1703 (1996)
                                          Hartwigsen et al., PRB 58, 3641 (1998)
                                                      Krack, TCA 114, 145 (2005)

       Gaussian exponent of the core charge distribution:               2.582645
       Electronic configuration (s p d ...):                               2   2

       Parameters of the local part of the GTH pseudopotential:

                          rloc        C1          C2          C3          C4
                        0.440000   -6.269288

       Parameters of the non-local part of the GTH pseudopotential:

                   l      r(l)      h(i,j,l)

                   0    0.435634    8.951742   -2.706271
                                   -2.706271    3.493781
                   1    0.497942    2.431277

  3. Atomic kind: O                                     Number of atoms:     385

     Orbital Basis Set                                     DZVP-MOLOPT-SR-GTH-q6

       Number of orbital shell sets:                                           1
       Number of orbital shells:                                               5
       Number of primitive Cartesian functions:                                5
       Number of Cartesian basis functions:                                   14
       Number of spherical basis functions:                                   13
       Norm type:                                                              2

       Normalised Cartesian orbitals:

                        Set   Shell   Orbital            Exponent    Coefficient

                          1       1    2s               10.389228       0.396646
                                                         3.849621       0.208811
                                                         1.388401      -0.301641
                                                         0.496955      -0.274061
                                                         0.162492      -0.033677

                          1       2    3s               10.389228       0.303673
                                                         3.849621       0.240943
                                                         1.388401      -0.313066
                                                         0.496955      -0.043055
                                                         0.162492       0.213991

                          1       3    3px              10.389228      -1.530415
                                                         3.849621      -1.371928
                                                         1.388401      -0.761951
                                                         0.496955      -0.253695
                                                         0.162492      -0.035541
                          1       3    3py              10.389228      -1.530415
                                                         3.849621      -1.371928
                                                         1.388401      -0.761951
                                                         0.496955      -0.253695
                                                         0.162492      -0.035541
                          1       3    3pz              10.389228      -1.530415
                                                         3.849621      -1.371928
                                                         1.388401      -0.761951
                                                         0.496955      -0.253695
                                                         0.162492      -0.035541

                          1       4    4px              10.389228      -0.565392
                                                         3.849621      -0.038231
                                                         1.388401      -0.382373
                                                         0.496955       0.179070
                                                         0.162492       0.122714
                          1       4    4py              10.389228      -0.565392
                                                         3.849621      -0.038231
                                                         1.388401      -0.382373
                                                         0.496955       0.179070
                                                         0.162492       0.122714
                          1       4    4pz              10.389228      -0.565392
                                                         3.849621      -0.038231
                                                         1.388401      -0.382373
                                                         0.496955       0.179070
                                                         0.162492       0.122714

                          1       5    4dx2             10.389228       1.867377
                                                         3.849621       0.670994
                                                         1.388401       1.353441
                                                         0.496955       0.273538
                                                         0.162492       0.006620
                          1       5    4dxy             10.389228       3.234392
                                                         3.849621       1.162195
                                                         1.388401       2.344229
                                                         0.496955       0.473781
                                                         0.162492       0.011466
                          1       5    4dxz             10.389228       3.234392
                                                         3.849621       1.162195
                                                         1.388401       2.344229
                                                         0.496955       0.473781
                                                         0.162492       0.011466
                          1       5    4dy2             10.389228       1.867377
                                                         3.849621       0.670994
                                                         1.388401       1.353441
                                                         0.496955       0.273538
                                                         0.162492       0.006620
                          1       5    4dyz             10.389228       3.234392
                                                         3.849621       1.162195
                                                         1.388401       2.344229
                                                         0.496955       0.473781
                                                         0.162492       0.011466
                          1       5    4dz2             10.389228       1.867377
                                                         3.849621       0.670994
                                                         1.388401       1.353441
                                                         0.496955       0.273538
                                                         0.162492       0.006620

       Atomic covalent radius [Angstrom]:                                  0.730

       Atomic van der Waals radius [Angstrom]:                             1.520

     GTH Potential information for                                    GTH-PBE-q6

       Description:                       Goedecker-Teter-Hutter pseudopotential
                                           Goedecker et al., PRB 54, 1703 (1996)
                                          Hartwigsen et al., PRB 58, 3641 (1998)
                                                      Krack, TCA 114, 145 (2005)

       Gaussian exponent of the core charge distribution:               8.360253
       Electronic configuration (s p d ...):                               2   4

       Parameters of the local part of the GTH pseudopotential:

                          rloc        C1          C2          C3          C4
                        0.244554  -16.667215    2.487311

       Parameters of the non-local part of the GTH pseudopotential:

                   l      r(l)      h(i,j,l)

                   0    0.220956   18.337458
                   1    0.211332

  4. Atomic kind: H                                     Number of atoms:      12

     Orbital Basis Set                                     DZVP-MOLOPT-SR-GTH-q1

       Number of orbital shell sets:                                           1
       Number of orbital shells:                                               3
       Number of primitive Cartesian functions:                                5
       Number of Cartesian basis functions:                                    5
       Number of spherical basis functions:                                    5
       Norm type:                                                              2

       Normalised Cartesian orbitals:

                        Set   Shell   Orbital            Exponent    Coefficient

                          1       1    2s               10.068468      -0.133023
                                                         2.680223      -0.177618
                                                         0.791502      -0.258419
                                                         0.239116      -0.107525
                                                         0.082193      -0.014019

                          1       2    3s               10.068468       0.344673
                                                         2.680223       1.819821
                                                         0.791502      -0.999069
                                                         0.239116       0.017430
                                                         0.082193       0.082660

                          1       3    3px              10.068468       0.155326
                                                         2.680223       0.367157
                                                         0.791502       0.311480
                                                         0.239116       0.080105
                                                         0.082193       0.033440
                          1       3    3py              10.068468       0.155326
                                                         2.680223       0.367157
                                                         0.791502       0.311480
                                                         0.239116       0.080105
                                                         0.082193       0.033440
                          1       3    3pz              10.068468       0.155326
                                                         2.680223       0.367157
                                                         0.791502       0.311480
                                                         0.239116       0.080105
                                                         0.082193       0.033440

       Atomic covalent radius [Angstrom]:                                  0.320

       Atomic van der Waals radius [Angstrom]:                             1.090

     GTH Potential information for                                    GTH-PBE-q1

       Description:                       Goedecker-Teter-Hutter pseudopotential
                                           Goedecker et al., PRB 54, 1703 (1996)
                                          Hartwigsen et al., PRB 58, 3641 (1998)
                                                      Krack, TCA 114, 145 (2005)

       Gaussian exponent of the core charge distribution:              12.500000
       Electronic configuration (s p d ...):                                   1

       Parameters of the local part of the GTH pseudopotential:

                          rloc        C1          C2          C3          C4
                        0.200000   -4.178900    0.724463

  5. Atomic kind: C                                     Number of atoms:       3

     Orbital Basis Set                                     DZVP-MOLOPT-SR-GTH-q4

       Number of orbital shell sets:                                           1
       Number of orbital shells:                                               5
       Number of primitive Cartesian functions:                                5
       Number of Cartesian basis functions:                                   14
       Number of spherical basis functions:                                   13
       Norm type:                                                              2

       Normalised Cartesian orbitals:

                        Set   Shell   Orbital            Exponent    Coefficient

                          1       1    2s                5.605331       0.322515
                                                         2.113016       0.213043
                                                         0.769911      -0.209686
                                                         0.348157      -0.219794
                                                         0.128212      -0.022789

                          1       2    3s                5.605331       0.552234
                                                         2.113016       0.082072
                                                         0.769911       0.007843
                                                         0.348157       0.136893
                                                         0.128212       0.074283

                          1       3    3px               5.605331      -0.703879
                                                         2.113016      -0.642521
                                                         0.769911      -0.374851
                                                         0.348157      -0.139743
                                                         0.128212      -0.027849
                          1       3    3py               5.605331      -0.703879
                                                         2.113016      -0.642521
                                                         0.769911      -0.374851
                                                         0.348157      -0.139743
                                                         0.128212      -0.027849
                          1       3    3pz               5.605331      -0.703879
                                                         2.113016      -0.642521
                                                         0.769911      -0.374851
                                                         0.348157      -0.139743
                                                         0.128212      -0.027849

                          1       4    4px               5.605331      -0.480376
                                                         2.113016      -0.552894
                                                         0.769911      -0.316145
                                                         0.348157       0.210505
                                                         0.128212       0.076095
                          1       4    4py               5.605331      -0.480376
                                                         2.113016      -0.552894
                                                         0.769911      -0.316145
                                                         0.348157       0.210505
                                                         0.128212       0.076095
                          1       4    4pz               5.605331      -0.480376
                                                         2.113016      -0.552894
                                                         0.769911      -0.316145
                                                         0.348157       0.210505
                                                         0.128212       0.076095

                          1       5    4dx2              5.605331       0.640026
                                                         2.113016       0.274300
                                                         0.769911       0.446711
                                                         0.348157       0.028674
                                                         0.128212       0.029790
                          1       5    4dxy              5.605331       1.108557
                                                         2.113016       0.475102
                                                         0.769911       0.773726
                                                         0.348157       0.049666
                                                         0.128212       0.051599
                          1       5    4dxz              5.605331       1.108557
                                                         2.113016       0.475102
                                                         0.769911       0.773726
                                                         0.348157       0.049666
                                                         0.128212       0.051599
                          1       5    4dy2              5.605331       0.640026
                                                         2.113016       0.274300
                                                         0.769911       0.446711
                                                         0.348157       0.028674
                                                         0.128212       0.029790
                          1       5    4dyz              5.605331       1.108557
                                                         2.113016       0.475102
                                                         0.769911       0.773726
                                                         0.348157       0.049666
                                                         0.128212       0.051599
                          1       5    4dz2              5.605331       0.640026
                                                         2.113016       0.274300
                                                         0.769911       0.446711
                                                         0.348157       0.028674
                                                         0.128212       0.029790

       Atomic covalent radius [Angstrom]:                                  0.770

       Atomic van der Waals radius [Angstrom]:                             1.700

     GTH Potential information for                                    GTH-PBE-q4

       Description:                       Goedecker-Teter-Hutter pseudopotential
                                           Goedecker et al., PRB 54, 1703 (1996)
                                          Hartwigsen et al., PRB 58, 3641 (1998)
                                                      Krack, TCA 114, 145 (2005)

       Gaussian exponent of the core charge distribution:               4.364419
       Electronic configuration (s p d ...):                               2   2

       Parameters of the local part of the GTH pseudopotential:

                          rloc        C1          C2          C3          C4
                        0.338471   -8.803674    1.339211

       Parameters of the non-local part of the GTH pseudopotential:

                   l      r(l)      h(i,j,l)

                   0    0.302576    9.622487
                   1    0.291507


 MOLECULE KIND INFORMATION


 All atoms are their own molecule, skipping detailed information


 TOTAL NUMBERS AND MAXIMUM NUMBERS

  Total number of            - Atomic kinds:                                   5
                             - Atoms:                                        591
                             - Shell sets:                                   591
                             - Shells:                                      2934
                             - Primitive Cartesian functions:               2766
                             - Cartesian basis functions:                   8183
                             - Spherical basis functions:                   7600

  Maximum angular momentum of- Orbital basis functions:                        3
                             - Local part of the GTH pseudopotential:          2
                             - Non-local part of the GTH pseudopotential:      3


 MODULE QUICKSTEP: ATOMIC COORDINATES IN ANGSTROM

   Atom Kind Element         X             Y             Z       Z(eff)     Mass
      1    1 Ti   22     10.649898     15.290197     12.942351  12.0000  47.8670
      2    2 Si   14     19.613140      3.043630      0.969280   4.0000  28.0855
      3    2 Si   14     21.389220      1.288470      7.077330   4.0000  28.0855
      4    2 Si   14     19.613040      3.064870      5.297820   4.0000  28.0855
      5    2 Si   14     21.368120      1.288540     11.405940   4.0000  28.0855
      6    2 Si   14     17.435070      7.396620      3.143910   4.0000  28.0855
      7    2 Si   14     17.036260     23.543370      9.252260   4.0000  28.0855
      8    2 Si   14     17.434900     23.144630      3.122910   4.0000  28.0855
      9    2 Si   14      1.288280     23.543520      9.230860   4.0000  28.0855
     10    2 Si   14      3.064600      0.890460     11.007250   4.0000  28.0855
     11    2 Si   14      6.998150     21.389350      1.367850   4.0000  28.0855
     12    2 Si   14      3.045910     13.108780      7.463260   4.0000  28.0855
     13    2 Si   14     23.543180      9.151850      1.367900   4.0000  28.0855
     14    2 Si   14      3.043680      5.218580     11.007400   4.0000  28.0855
     15    2 Si   14     11.329770      9.174760      4.903570   4.0000  28.0855
     16    2 Si   14      1.287820     21.368520     11.405780   4.0000  28.0855
     17    2 Si   14      3.064660     19.613450      5.296990   4.0000  28.0855
     18    2 Si   14      1.288320     21.389620      7.076930   4.0000  28.0855
     19    2 Si   14      3.043640     19.613070      0.969190   4.0000  28.0855
     20    2 Si   14     23.542880      1.288630      9.231150   4.0000  28.0855
     21    2 Si   14     23.144540     17.434730      3.123000   4.0000  28.0855
     22    2 Si   14     23.542770     17.035860      9.251960   4.0000  28.0855
     23    2 Si   14      7.397040     17.434610      3.144250   4.0000  28.0855
     24    2 Si   14      9.152750      6.999110      4.899540   4.0000  28.0855
     25    2 Si   14     17.434710      3.065020      7.476120   4.0000  28.0855
     26    2 Si   14     23.144630     15.281070      0.969290   4.0000  28.0855
     27    2 Si   14     21.367980     17.036100      7.077340   4.0000  28.0855
     28    2 Si   14     23.144440     15.259880      5.297740   4.0000  28.0855
     29    2 Si   14     21.389060     17.036100     11.405980   4.0000  28.0855
     30    2 Si   14      0.889830     10.928020      3.143990   4.0000  28.0855
     31    2 Si   14      1.287740     19.214510      9.251940   4.0000  28.0855
     32    2 Si   14      0.889670     19.613090      3.122680   4.0000  28.0855
     33    2 Si   14     17.045400     19.221510      9.227480   4.0000  28.0855
     34    2 Si   14     15.281100      5.218810      7.476180   4.0000  28.0855
     35    2 Si   14      6.998510      9.152100      4.898990   4.0000  28.0855
     36    2 Si   14      4.818900      9.173220     11.404140   4.0000  28.0855
     37    2 Si   14      3.043250     10.926700      5.296450   4.0000  28.0855
     38    2 Si   14      4.818960      9.149760      7.075230   4.0000  28.0855
     39    2 Si   14      3.064850     10.928100      0.969530   4.0000  28.0855
     40    2 Si   14      6.998390      4.819920      9.231060   4.0000  28.0855
     41    2 Si   14      7.398230     13.104000      3.121040   4.0000  28.0855
     42    2 Si   14      6.973810     13.515750      9.261360   4.0000  28.0855
     43    2 Si   14     23.144680     13.106120      3.144170   4.0000  28.0855
     44    2 Si   14     21.368290     11.326650      1.367960   4.0000  28.0855
     45    2 Si   14     17.435110     15.259200     11.007390   4.0000  28.0855
     46    2 Si   14     21.389370     23.543280      4.899210   4.0000  28.0855
     47    2 Si   14      0.889710      3.064980     11.007440   4.0000  28.0855
     48    2 Si   14     21.389440      6.998180      1.367930   4.0000  28.0855
     49    2 Si   14     13.106310      3.043820      7.476120   4.0000  28.0855
     50    2 Si   14     10.928070      3.064900      0.969430   4.0000  28.0855
     51    2 Si   14      9.151950      4.820160      7.077250   4.0000  28.0855
     52    2 Si   14     10.928150      3.043780      5.297840   4.0000  28.0855
     53    2 Si   14      9.173260      4.819470     11.405490   4.0000  28.0855
     54    2 Si   14     13.106210     23.144610      3.144050   4.0000  28.0855
     55    2 Si   14     13.505280      6.999870      9.251920   4.0000  28.0855
     56    2 Si   14     13.106080      7.397170      3.123620   4.0000  28.0855
     57    2 Si   14      4.819920      6.997950      9.230720   4.0000  28.0855
     58    2 Si   14      3.062640     17.435510      7.474560   4.0000  28.0855
     59    2 Si   14     19.214790     21.368360      4.898880   4.0000  28.0855
     60    2 Si   14     17.036840     21.389680     11.405790   4.0000  28.0855
     61    2 Si   14     15.259870     23.144950      5.297580   4.0000  28.0855
     62    2 Si   14     17.036840     21.369970      7.076020   4.0000  28.0855
     63    2 Si   14     15.281170     23.144590      0.969250   4.0000  28.0855
     64    2 Si   14     19.214760     17.035810      9.231060   4.0000  28.0855
     65    2 Si   14     19.613110      0.889920      3.122970   4.0000  28.0855
     66    2 Si   14     19.214320      1.288510      9.252230   4.0000  28.0855
     67    2 Si   14     10.928080      0.889950      3.144170   4.0000  28.0855
     68    2 Si   14      9.151830     23.543180      1.367890   4.0000  28.0855
     69    2 Si   14      5.218710      3.044010     11.007530   4.0000  28.0855
     70    2 Si   14      9.173490     11.327970      4.900850   4.0000  28.0855
     71    2 Si   14     13.192120     15.277450     10.834110   4.0000  28.0855
     72    2 Si   14      9.172930     19.214410      1.367870   4.0000  28.0855
     73    2 Si   14      0.889950     15.259310      7.475720   4.0000  28.0855
     74    2 Si   14      7.396790     15.259810      0.969640   4.0000  28.0855
     75    2 Si   14      9.171370     13.506360      7.086250   4.0000  28.0855
     76    2 Si   14      7.387870     15.281480      5.290280   4.0000  28.0855
     77    2 Si   14      5.218850     19.612720      3.143940   4.0000  28.0855
     78    2 Si   14      4.813670     11.323360      9.245400   4.0000  28.0855
     79    2 Si   14      5.218670     10.928100      3.122960   4.0000  28.0855
     80    2 Si   14     13.520030     11.311670      9.213790   4.0000  28.0855
     81    2 Si   14     15.282750     13.103730     11.006990   4.0000  28.0855
     82    2 Si   14     19.214550      9.173000      1.367940   4.0000  28.0855
     83    2 Si   14     15.259970      0.890050      7.476060   4.0000  28.0855
     84    2 Si   14     11.326650     21.368220      1.367870   4.0000  28.0855
     85    2 Si   14     15.280110     17.440630     10.989750   4.0000  28.0855
     86    2 Si   14     23.542920     21.389330      4.899040   4.0000  28.0855
     87    2 Si   14     13.504520      9.152620     11.405570   4.0000  28.0855
     88    2 Si   14     15.281850      7.394980      5.296500   4.0000  28.0855
     89    2 Si   14     13.518140      9.178020      7.080220   4.0000  28.0855
     90    2 Si   14     15.259820      7.396760      0.969590   4.0000  28.0855
     91    2 Si   14     11.437000     13.526050      9.176210   4.0000  28.0855
     92    2 Si   14     10.928130      5.218880      3.123090   4.0000  28.0855
     93    2 Si   14     11.327180      4.820320      9.252280   4.0000  28.0855
     94    2 Si   14     19.613170      5.218560      3.144150   4.0000  28.0855
     95    2 Si   14     21.368220     19.214390      4.899240   4.0000  28.0855
     96    2 Si   14      5.195540     15.280030      7.422050   4.0000  28.0855
     97    2 Si   14     23.144470      3.064830     13.185670   4.0000  28.0855
     98    2 Si   14     21.368170      4.819940     19.294040   4.0000  28.0855
     99    2 Si   14     23.144490      3.043740     17.514420   4.0000  28.0855
    100    2 Si   14     21.389370      4.819850     23.622740   4.0000  28.0855
    101    2 Si   14      0.889210     23.144740     15.360690   4.0000  28.0855
    102    2 Si   14      1.288340      6.998060     21.469060   4.0000  28.0855
    103    2 Si   14      0.889710      7.396660     15.339470   4.0000  28.0855
    104    2 Si   14     17.036370      6.998080     21.447850   4.0000  28.0855
    105    2 Si   14     15.281200     17.434370     19.692950   4.0000  28.0855
    106    2 Si   14      6.994010     21.374660     17.118470   4.0000  28.0855
    107    2 Si   14      4.819810     21.389530     23.623100   4.0000  28.0855
    108    2 Si   14      3.042860     23.144970     17.514700   4.0000  28.0855
    109    2 Si   14      4.818360     21.368940     19.295650   4.0000  28.0855
    110    2 Si   14      3.063990     23.145170     13.185370   4.0000  28.0855
    111    2 Si   14      6.997860     17.036330     21.448700   4.0000  28.0855
    112    2 Si   14      7.396990      0.890810     15.339510   4.0000  28.0855
    113    2 Si   14      6.998250      1.288640     21.469020   4.0000  28.0855
    114    2 Si   14     23.144310      0.890130     15.360570   4.0000  28.0855
    115    2 Si   14     21.368000     23.543350     13.584320   4.0000  28.0855
    116    2 Si   14     17.434980      3.043650     23.224110   4.0000  28.0855
    117    2 Si   14     21.389100     11.326660     17.115710   4.0000  28.0855
    118    2 Si   14      0.889600     15.281080     23.224180   4.0000  28.0855
    119    2 Si   14     21.389140     19.214270     13.584200   4.0000  28.0855
    120    2 Si   14     13.106560     15.259370     19.692120   4.0000  28.0855
    121    2 Si   14     19.612820     15.259620     13.185330   4.0000  28.0855
    122    2 Si   14     21.389250     13.504830     19.293950   4.0000  28.0855
    123    2 Si   14     19.612960     15.281020     17.514310   4.0000  28.0855
    124    2 Si   14     21.368130     13.504910     23.622700   4.0000  28.0855
    125    2 Si   14     17.434640     19.612700     15.359610   4.0000  28.0855
    126    2 Si   14     17.036060     11.326620     21.468440   4.0000  28.0855
    127    2 Si   14     17.433080     10.927720     15.339450   4.0000  28.0855
    128    2 Si   14      1.288290     11.326610     21.447910   4.0000  28.0855
    129    2 Si   14      3.064580     13.106130     23.224230   4.0000  28.0855
    130    2 Si   14      6.984220      9.139320     13.586060   4.0000  28.0855
    131    2 Si   14      3.043500      0.890280     19.692900   4.0000  28.0855
    132    2 Si   14     23.542610     21.368310     13.584350   4.0000  28.0855
    133    2 Si   14      3.043340     17.434790     23.224390   4.0000  28.0855
    134    2 Si   14     11.323090     21.386060     17.129770   4.0000  28.0855
    135    2 Si   14      1.288390      9.151750     23.622810   4.0000  28.0855
    136    2 Si   14      3.063380      7.396170     17.515410   4.0000  28.0855
    137    2 Si   14      1.288060      9.172960     19.294220   4.0000  28.0855
    138    2 Si   14      3.043360      7.396120     13.185780   4.0000  28.0855
    139    2 Si   14     23.542950     13.504860     21.447800   4.0000  28.0855
    140    2 Si   14     23.144490      5.218560     15.339500   4.0000  28.0855
    141    2 Si   14     23.543020      4.819890     21.469000   4.0000  28.0855
    142    2 Si   14      7.397050      5.217980     15.361250   4.0000  28.0855
    143    2 Si   14      9.150920     19.244710     17.151750   4.0000  28.0855
    144    2 Si   14     17.434410     15.280240     19.692340   4.0000  28.0855
    145    2 Si   14      7.396680      3.044330     13.185610   4.0000  28.0855
    146    2 Si   14      9.173030      1.288840     19.294360   4.0000  28.0855
    147    2 Si   14      7.396640      3.064980     17.514600   4.0000  28.0855
    148    2 Si   14      9.151930      1.288460     23.622850   4.0000  28.0855
    149    2 Si   14      5.213750      7.390690     15.363750   4.0000  28.0855
    150    2 Si   14      4.819740     23.543710     21.469550   4.0000  28.0855
    151    2 Si   14      5.217400     23.146350     15.339120   4.0000  28.0855
    152    2 Si   14     13.505020     23.543490     21.448270   4.0000  28.0855
    153    2 Si   14     15.281310      0.889990     23.224250   4.0000  28.0855
    154    2 Si   14     19.214410     21.389510     13.584280   4.0000  28.0855
    155    2 Si   14     15.258990     13.103160     19.688780   4.0000  28.0855
    156    2 Si   14     11.325480      9.148660     13.585390   4.0000  28.0855
    157    2 Si   14     15.260090      5.218550     23.224080   4.0000  28.0855
    158    2 Si   14     23.542940      9.172920     17.115790   4.0000  28.0855
    159    2 Si   14     13.504940     21.368350     23.622830   4.0000  28.0855
    160    2 Si   14     15.283000     19.613560     17.515750   4.0000  28.0855
    161    2 Si   14     13.506710     21.389730     19.295820   4.0000  28.0855
    162    2 Si   14     15.259370     19.607820     13.180930   4.0000  28.0855
    163    2 Si   14     11.326860      1.288480     21.447980   4.0000  28.0855
    164    2 Si   14     10.922610     17.487120     15.395480   4.0000  28.0855
    165    2 Si   14     11.327400     17.035910     21.469280   4.0000  28.0855
    166    2 Si   14     19.613070     17.434580     15.360440   4.0000  28.0855
    167    2 Si   14     21.368040      6.998210     17.115750   4.0000  28.0855
    168    2 Si   14      5.218460      3.064880     19.692740   4.0000  28.0855
    169    2 Si   14      9.152550     17.032980     19.296510   4.0000  28.0855
    170    2 Si   14     10.928700     15.265150     17.515830   4.0000  28.0855
    171    2 Si   14      9.173160     17.036280     23.622990   4.0000  28.0855
    172    2 Si   14     13.106390     10.917020     15.367310   4.0000  28.0855
    173    2 Si   14     13.505100     19.214470     21.469130   4.0000  28.0855
    174    2 Si   14     13.110860     19.618630     15.341440   4.0000  28.0855
    175    2 Si   14      4.819760     19.214420     21.448470   4.0000  28.0855
    176    2 Si   14      3.064570      5.218340     19.692950   4.0000  28.0855
    177    2 Si   14     19.214180      9.151950     17.115630   4.0000  28.0855
    178    2 Si   14     17.036290      9.173060     23.622540   4.0000  28.0855
    179    2 Si   14     15.252470     10.916570     17.509360   4.0000  28.0855
    180    2 Si   14     17.036970      9.151490     19.294420   4.0000  28.0855
    181    2 Si   14     15.278880     10.928000     13.187520   4.0000  28.0855
    182    2 Si   14     19.214510      4.819880     21.447790   4.0000  28.0855
    183    2 Si   14     19.612600     13.106000     15.339270   4.0000  28.0855
    184    2 Si   14     19.214320     13.504780     21.468930   4.0000  28.0855
    185    2 Si   14     10.871130     13.041180     15.367730   4.0000  28.0855
    186    2 Si   14      9.129960     11.287070     13.608670   4.0000  28.0855
    187    2 Si   14      5.218310     15.259850     23.224460   4.0000  28.0855
    188    2 Si   14      9.173500     23.544010     17.116100   4.0000  28.0855
    189    2 Si   14     13.106410      3.064840     23.224150   4.0000  28.0855
    190    2 Si   14      9.162740      6.990570     13.583110   4.0000  28.0855
    191    2 Si   14      0.889560      3.043710     19.692670   4.0000  28.0855
    192    3 O     8     24.353720      3.558640     12.216740   6.0000  15.9994
    193    3 O     8     20.874280      3.558720      0.079480   6.0000  15.9994
    194    3 O     8     20.874230      2.549560      6.187720   6.0000  15.9994
    195    3 O     8     18.324830      8.657750      2.628910   6.0000  15.9994
    196    3 O     8     15.775130      0.000040      8.737250   6.0000  15.9994
    197    3 O     8     18.324760     21.883550      3.638100   6.0000  15.9994
    198    3 O     8      2.549560     -0.000090      9.746550   6.0000  15.9994
    199    3 O     8      6.108240     20.874310      2.629010   6.0000  15.9994
    200    3 O     8      3.557110     12.220910      8.731230   6.0000  15.9994
    201    3 O     8     -0.000110      9.666960      2.628890   6.0000  15.9994
    202    3 O     8      3.558810      6.108260      9.746510   6.0000  15.9994
    203    3 O     8     12.216490      8.658150      3.639560   6.0000  15.9994
    204    3 O     8      2.549600     20.874290      6.187760   6.0000  15.9994
    205    3 O     8      3.558730     20.874280      0.079500   6.0000  15.9994
    206    3 O     8      0.000000      2.549470      9.746490   6.0000  15.9994
    207    3 O     8     21.883540     18.324740      3.638210   6.0000  15.9994
    208    3 O     8      0.000270     15.775040      8.737230   6.0000  15.9994
    209    3 O     8      8.657780     18.324990      2.628860   6.0000  15.9994
    210    3 O     8      9.667030      6.108360      3.638450   6.0000  15.9994
    211    3 O     8     18.324720      2.549560      8.737210   6.0000  15.9994
    212    3 O     8     21.883480     14.766030      0.079480   6.0000  15.9994
    213    3 O     8     21.883460     15.775190      6.187670   6.0000  15.9994
    214    3 O     8      2.549790     18.324770      8.737540   6.0000  15.9994
    215    3 O     8      0.000040     20.874270      3.638230   6.0000  15.9994
    216    3 O     8     15.785900     18.338050      9.740250   6.0000  15.9994
    217    3 O     8     14.765760      6.108330      8.737150   6.0000  15.9994
    218    3 O     8      6.108250      9.666840      3.638150   6.0000  15.9994
    219    3 O     8      2.549540      9.667020      0.079490   6.0000  15.9994
    220    3 O     8      3.558080      9.666170      6.187050   6.0000  15.9994
    221    3 O     8      6.108280      3.558710      9.746380   6.0000  15.9994
    222    3 O     8      8.658850     12.215500      3.637800   6.0000  15.9994
    223    3 O     8      6.109720     14.763310      8.656490   6.0000  15.9994
    224    3 O     8     21.883470     12.216510      2.628990   6.0000  15.9994
    225    3 O     8     18.324960     15.775450      9.746440   6.0000  15.9994
    226    3 O     8     20.874260      0.000040      3.638200   6.0000  15.9994
    227    3 O     8     20.874320      6.108230      2.628990   6.0000  15.9994
    228    3 O     8     12.216410      3.558570      8.737340   6.0000  15.9994
    229    3 O     8      9.667010      2.549540      0.079520   6.0000  15.9994
    230    3 O     8      9.666980      3.558700      6.187760   6.0000  15.9994
    231    3 O     8     12.216470     21.883480      2.628990   6.0000  15.9994
    232    3 O     8     14.766020     21.883490      0.079480   6.0000  15.9994
    233    3 O     8     15.775050     21.883940      6.187410   6.0000  15.9994
    234    3 O     8      9.666980      0.000000      2.629040   6.0000  15.9994
    235    3 O     8     12.467310     14.757380      9.478340   6.0000  15.9994
    236    3 O     8      8.657730     15.775270      0.079460   6.0000  15.9994
    237    3 O     8      8.648590     14.768070      6.190370   6.0000  15.9994
    238    3 O     8     14.763300     12.216890      9.745590   6.0000  15.9994
    239    3 O     8     14.768710      8.655460      6.184640   6.0000  15.9994
    240    3 O     8     15.775180      8.657720      0.079510   6.0000  15.9994
    241    3 O     8     19.079200      4.246460      1.941270   6.0000  15.9994
    242    3 O     8     20.186560      0.754410      8.049570   6.0000  15.9994
    243    3 O     8     19.079180      1.861740      4.326010   6.0000  15.9994
    244    3 O     8     22.571280      0.754400     10.434280   6.0000  15.9994
    245    3 O     8     16.463040      6.862570      1.941060   6.0000  15.9994
    246    3 O     8     17.570670     22.571800      8.049390   6.0000  15.9994
    247    3 O     8     16.463040     23.678680      4.325910   6.0000  15.9994
    248    3 O     8      0.754460     22.571360     10.434150   6.0000  15.9994
    249    3 O     8      1.861660      1.861780     11.541630   6.0000  15.9994
    250    3 O     8      7.970030     20.186550      0.833840   6.0000  15.9994
    251    3 O     8      4.234880     14.074210      6.872430   6.0000  15.9994
    252    3 O     8     22.571200     10.354750      0.833860   6.0000  15.9994
    253    3 O     8      4.246370      4.246410     11.541600   6.0000  15.9994
    254    3 O     8     10.355690      7.970650      5.433910   6.0000  15.9994
    255    3 O     8      1.861600     19.079230      4.325900   6.0000  15.9994
    256    3 O     8      0.754480     20.186660      8.049440   6.0000  15.9994
    257    3 O     8      4.246430     19.079200      1.941270   6.0000  15.9994
    258    3 O     8     23.678600     16.462990      4.326040   6.0000  15.9994
[...]
 flops   401 x   128 x   629        2697631529472       0.0%    100.0%      0.0%
 flops  1892 x   128 x   637        3461731553280       0.0%    100.0%      0.0%
 flops  1895 x   128 x   637        3467220556800       0.0%    100.0%      0.0%
 flops  1905 x   128 x   637        3485517235200       0.0%    100.0%      0.0%
 flops  1908 x   128 x   637        3491006238720       0.0%    100.0%      0.0%
 flops   401 x   128 x   642        3671180587008       0.0%    100.0%      0.0%
 flops   401 x   128 x   128        4388223713280       0.0%    100.0%      0.0%
 flops  1892 x   128 x   629        5127384176640       0.0%    100.0%      0.0%
 flops  1895 x   128 x   629        5135514278400       0.0%    100.0%      0.0%
 flops  1905 x   128 x   629        5162614617600       0.0%    100.0%      0.0%
 flops  1908 x   128 x   629        5170744719360       0.0%    100.0%      0.0%
 flops   384 x   128 x   637        5232247308288       0.0%    100.0%      0.0%
 flops  1892 x   128 x   642        6977807400960       0.0%    100.0%      0.0%
 flops  1895 x   128 x   642        6988871577600       0.0%    100.0%      0.0%
 flops  1905 x   128 x   642        7025752166400       0.0%    100.0%      0.0%
 flops  1908 x   128 x   642        7036816343040       0.0%    100.0%      0.0%
 flops   384 x   128 x   629        7749804294144       0.0%    100.0%      0.0%
 flops   384 x   128 x   642       10546633506816       0.0%    100.0%      0.0%
 flops   384 x   128 x   128       12606567874560       0.0%    100.0%      0.0%
 flops    13 x    13 x   128       12936415624704       0.0%    100.0%      0.0%
 flops  1892 x   128 x   128       13270407839744       0.0%    100.0%      0.0%
 flops  1895 x   128 x   128       13291449712640       0.0%    100.0%      0.0%
 flops  1905 x   128 x   128       13361589288960       0.0%    100.0%      0.0%
 flops  1908 x   128 x   128       13382631161856       0.0%    100.0%      0.0%
 flops    13 x    32 x    13       42830844985344       0.0%    100.0%      0.0%
 flops inhomo. stacks              34948341603288     100.0%      0.0%      0.0%
 flops total                       283.958842E+12      12.3%     87.7%      0.0%
 flops max/rank                      6.665069E+12      12.4%     87.6%      0.0%
 matmuls inhomo. stacks                    255744     100.0%      0.0%      0.0%
 matmuls total                         4649718338       0.0%    100.0%      0.0%
 number of processed stacks              10848582       2.4%     97.6%      0.0%
 average stack size                                     1.0     438.9       0.0
 marketing flops                   452.871418E+12
 -------------------------------------------------------------------------------
 # multiplications                           7587
 max memory usage/rank             792.125440E+06
 # max total images/rank                        3
 # max 3D layers                                1
 # MPI messages exchanged                 7283520
 MPI messages size (bytes):
  total size                         9.251414E+12
  min size                           0.000000E+00
  max size                           9.799488E+06
  average size                       1.270184E+06
 MPI breakdown and total messages size (bytes):
             size <=      128                2712                        0
       128 < size <=     8192                   0                        0
      8192 < size <=    32768                  66                  2162688
     32768 < size <=   131072             1644033             215486117424
    131072 < size <=  4194304             5367429            6446066172824
   4194304 < size <= 16777216              269280            2592268800000
  16777216 < size                               0                        0
 -------------------------------------------------------------------------------

 *** WARNING in dbcsr_mm.F:291 :: Using a non-square number of MPI ranks ***
 *** might lead to poor performance. Used ranks: 48 Suggested: 49 100    ***

 -------------------------------------------------------------------------------
 -                                                                             -
 -                      DBCSR MESSAGE PASSING PERFORMANCE                      -
 -                                                                             -
 -------------------------------------------------------------------------------
 ROUTINE             CALLS      AVE VOLUME [Bytes]
 MP_Bcast              103                     12.
 MP_Allreduce        39135                    167.
 MP_Alltoall         27218                 147412.
 MP_ISend           353024                 581279.
 MP_IRecv           353024                 577484.
 -------------------------------------------------------------------------------

 -------------------------------------------------------------------------------
 -                                                                             -
 -                                DBM STATISTICS                               -
 -                                                                             -
 -------------------------------------------------------------------------------
    M  x    N  x    K                                          COUNT     PERCENT
 -------------------------------------------------------------------------------

 -------------------------------------------------------------------------------
 -                                                                             -
 -                                GRID STATISTICS                              -
 -                                                                             -
 -------------------------------------------------------------------------------
 LP    KERNEL             BACKEND                              COUNT     PERCENT
 4     collocate ortho    CPU                              139802234      63.23%
 4     integrate ortho    CPU                               69901117      31.62%
 3     collocate ortho    CPU                                6038604       2.73%
 3     integrate ortho    CPU                                3019302       1.37%
 5     collocate ortho    CPU                                 819720       0.37%
 2     collocate ortho    CPU                                 663872       0.30%
 5     integrate ortho    CPU                                 409860       0.19%
 2     integrate ortho    CPU                                 331936       0.15%
 0     collocate general  CPU                                  56736       0.03%
 0     integrate general  CPU                                  28368       0.01%
 6     collocate ortho    CPU                                  18216       0.01%
 6     integrate ortho    CPU                                   9108       0.00%
 -------------------------------------------------------------------------------

 MEMORY| Estimated peak process memory [MiB]                                 757

 -------------------------------------------------------------------------------
 ----                             MULTIGRID INFO                            ----
 -------------------------------------------------------------------------------
 count for grid        1:        2951485          cutoff [a.u.]          180.00
 count for grid        2:        1043750          cutoff [a.u.]           60.00
 count for grid        3:         518638          cutoff [a.u.]           20.00
 count for grid        4:          54709          cutoff [a.u.]            6.67
 count for grid        5:              0          cutoff [a.u.]            2.22
 total gridlevel count  :        4568582

 -------------------------------------------------------------------------------
 -                                                                             -
 -                         MESSAGE PASSING PERFORMANCE                         -
 -                                                                             -
 -------------------------------------------------------------------------------

 ROUTINE             CALLS      AVE VOLUME [Bytes]
 MP_Group                5
 MP_Bcast            34273                 247320.
 MP_Allreduce        85120                    892.
 MP_Sync               511
 MP_Alltoall          8617               16199315.
 MP_SendRecv         71346                  66752.
 MP_ISendRecv        35673                  66752.
 MP_Wait             75219
 MP_comm_split         506
 MP_ISend            33462                 739428.
 MP_IRecv            33462                 738700.
 -------------------------------------------------------------------------------


 -------------------------------------------------------------------------------
 -                                                                             -
 -                           R E F E R E N C E S                               -
 -                                                                             -
 -------------------------------------------------------------------------------
 
 CP2K version 2023.2, the CP2K developers group (2023).
 CP2K is freely available from https://www.cp2k.org/ .

 Kuehne,Thomas D.; Iannuzzi,Marcella; Del Ben,Mauro;
 Rybkin,Vladimir V.; Seewald,Patrick; Stein,Frederick; Laino,Teodoro;
 Khaliullin,Rustam Z.; Schuett,Ole; Schiffmann,Florian; Golze,Dorothea;
 Wilhelm,Jan; Chulkov,Sergey; Bani-Hashemian,Mohammad Hossein;
 Weber,Valery; Borstnik,Urban; Taillefumier,Mathieu;
 Jakobovits,Alice Shoshana; Lazzaro,Alfio; Pabst,Hans; Mueller,Tiziano;
 Schade,Robert; Guidon,Manuel; Andermatt,Samuel; Holmberg,Nico;
 Schenter,Gregory K.; Hehn,Anna; Bussy,Augustin; Belleflamme,Fabian;
 Tabacchi,Gloria; Gloess,Andreas; Lass,Michael; Bethune,Iain;
 Mundy,Christopher J.; Plessl,Christian; Watkins,Matt;
 VandeVondele,Joost; Krack,Matthias; Hutter,Juerg. 
 The Journal of Chemical Physics, 152 (19), (2020). 
 CP2K: An electronic structure and molecular dynamics software package -
 Quickstep: Efficient and accurate electronic structure calculations.
 https://doi.org/10.1063/5.0007045

 Goerigk, Lars; Hansen, Andreas; Bauer, Christoph; Ehrlich, Stephan;
 Najibi, Asim; Grimme, Stefan. , 19 (48), (2017). 
 A look at the density functional theory zoo with the advanced GMTKN55 database
 for general main group thermochemistry, kinetics and noncovalent interactions.
 https://doi.org/10.1039/C7CP04913G

 Schuett, Ole; Messmer, Peter; Hutter, Juerg; VandeVondele, Joost. 
 Electronic Structure Calculations on Graphics Processing Units, John
 Wiley & Sons, Ltd, 173-190 (2016). 
 GPU-Accelerated Sparse Matrix-Matrix Multiplication for
 Linear Scaling Density Functional Theory.
 https://doi.org/10.1002/9781118670712.ch8

 Heinecke, A; Henry, G; Hutchinson, M; Pabst, H. 
 Proceedings of Intl. Supercomputing Conference, 981-991 (2016). 
 LIBXSMM: Accelerating Small Matrix Multiplications
 by Runtime Code Generation.
 https://doi.org/10.1109/SC.2016.83

 Borstnik, U; VandeVondele, J; Weber, V; Hutter, J. 
 PARALLEL COMPUTING, 40 (5-6), 47-58 (2014). 
 Sparse matrix multiplication: The distributed block-compressed sparse
 row library.
 https://doi.org/10.1016/j.parco.2014.03.012

 Hutter, J; Iannuzzi, M; Schiffmann, F; VandeVondele, J. 
 WIREs Comput Mol Sci., 4 (1), 15-25 (2014). 
 CP2K: atomistic simulations of condensed matter systems.
 https://doi.org/10.1002/wcms.1159

 Grimme, S; Ehrlich, S; Goerigk, L. 
 JOURNAL OF COMPUTATIONAL CHEMISTRY, 32, 1456 (2011). 
 Effect of the damping function in dispersion corrected density functional theory.
 https://doi.org/10.1002/jcc.21759

 Grimme, S; Antony, J; Ehrlich, S; Krieg, H. 
 JOURNAL OF CHEMICAL PHYSICS, 132 (15), 154104 (2010). 
 A consistent and accurate ab initio parametrization of density
 functional dispersion correction (DFT-D) for the 94 elements H-Pu.
 https://doi.org/10.1063/1.3382344

 VandeVondele, J; Hutter, J. 
 JOURNAL OF CHEMICAL PHYSICS, 127 (11), 114105 (2007). 
 Gaussian basis sets for accurate calculations on molecular systems in
 gas and condensed phases.
 https://doi.org/10.1063/1.2770708

 Krack, M. 
 THEORETICAL CHEMISTRY ACCOUNTS, 114 (1-3), 145-152 (2005). 
 Pseudopotentials for H to Kr optimized for gradient-corrected
 exchange-correlation functionals.
 https://doi.org/10.1007/s00214-005-0655-y

 VandeVondele, J; Krack, M; Mohamed, F; Parrinello, M; Chassaing, T;
 Hutter, J. COMPUTER PHYSICS COMMUNICATIONS, 167 (2), 103-128 (2005). 
 QUICKSTEP: Fast and accurate density functional calculations using a
 mixed Gaussian and plane waves approach.
 https://doi.org/10.1016/j.cpc.2004.12.014

 Frigo, M; Johnson, SG. 
 PROCEEDINGS OF THE IEEE, 93 (2), 216-231 (2005). 
 The design and implementation of FFTW3.
 https://doi.org/10.1109/JPROC.2004.840301

 VandeVondele, J; Hutter, J. 
 JOURNAL OF CHEMICAL PHYSICS, 118 (10), 4365-4369 (2003). 
 An efficient orbital transformation method for electronic structure
 calculations.
 https://doi.org/10.1063/1.1543154

 Hartwigsen, C; Goedecker, S; Hutter, J. 
 PHYSICAL REVIEW B, 58 (7), 3641-3662 (1998). 
 Relativistic separable dual-space Gaussian pseudopotentials from H to Rn.
 https://doi.org/10.1103/PhysRevB.58.3641

 Lippert, G; Hutter, J; Parrinello, M. 
 MOLECULAR PHYSICS, 92 (3), 477-487 (1997). 
 A hybrid Gaussian and plane wave density functional scheme.
 https://doi.org/10.1080/002689797170220

 Perdew, JP; Burke, K; Ernzerhof, M. 
 PHYSICAL REVIEW LETTERS, 77 (18), 3865-3868 (1996). 
 Generalized gradient approximation made simple.
 https://doi.org/10.1103/PhysRevLett.77.3865

 Goedecker, S; Teter, M; Hutter, J. 
 PHYSICAL REVIEW B, 54 (3), 1703-1710 (1996). 
 Separable dual-space Gaussian pseudopotentials.
 https://doi.org/10.1103/PhysRevB.54.1703


 -------------------------------------------------------------------------------
 -                                                                             -
 -                                T I M I N G                                  -
 -                                                                             -
 -------------------------------------------------------------------------------
 SUBROUTINE                       CALLS  ASD         SELF TIME        TOTAL TIME
                                MAXIMUM       AVERAGE  MAXIMUM  AVERAGE  MAXIMUM
 CP2K                                 1  1.0    0.008    0.023 1025.507 1025.508
 qs_energies                          1  2.0    0.000    0.000 1024.423 1024.425
 scf_env_do_scf                       1  3.0    0.001    0.001 1022.850 1022.852
 scf_env_do_scf_inner_loop          505  4.0    0.010    0.095 1001.604 1001.670
 qs_scf_new_mos                     505  5.0    0.003    0.003  402.929  403.831
 qs_scf_loop_do_ot                  505  6.0    0.003    0.003  402.926  403.828
 ot_scf_mini                        505  7.0    0.013    0.014  377.686  378.446
 qs_ks_update_qs_env                507  5.0    0.003    0.005  374.022  374.770
 rebuild_ks_matrix                  505  6.0    0.002    0.002  373.208  373.954
 qs_ks_build_kohn_sham_matrix       505  7.0    0.059    0.064  373.206  373.952
 dbcsr_multiply_generic            7587  9.9    0.363    0.390  344.454  347.223
 multiply_cannon                   7587 10.9    0.561    0.705  280.696  291.201
 multiply_cannon_loop              7587 11.9    0.882    0.943  270.251  282.739
 pw_transfer                       8092  9.8    0.371    0.416  237.371  242.154
 fft_wrap_pw1pw2                   7082 10.9    0.060    0.066  233.627  238.430
 qs_rho_update_rho_low              506  5.0    0.002    0.002  225.417  226.565
 calculate_rho_elec                 506  6.0    0.793    0.848  225.414  226.562
 fft_wrap_pw1pw2_180               4046 12.6   44.767   46.938  222.531  225.389
 qs_vxc_create                      505  8.0    0.009    0.011  222.156  223.573
 multiply_cannon_multrec          91044 12.9  148.009  191.564  148.076  191.626
 ot_mini                            505  8.0    0.003    0.004  188.925  189.422
 xc_rho_set_and_dset_create         505 10.0    2.116    2.631  147.166  150.605
 mp_waitall_1                    648717 14.0  134.561  149.426  134.561  149.426
 fft3d_ps                          7082 12.9   80.299   89.351  144.992  147.642
 xc_pw_derive                      2274 11.0    0.041    0.051  144.270  146.601
 xc_vxc_pw_create                   253  9.0    1.647    1.966  143.947  145.366
 multiply_cannon_metrocomm3       91044 12.9    0.337    0.380  119.624  133.378
 grid_collocate_task_list           506  7.0  112.633  120.180  112.633  120.180
 density_rs2pw                      506  7.0    0.031    0.034  106.386  112.613
 ot_new_cg_direction                253  9.0    0.003    0.004  109.350  109.351
 apply_preconditioner_dbcsr         255 10.0    0.001    0.001  107.841  109.230
 apply_all                          255 11.0    0.091    0.108  107.840  109.230
 qs_ot_get_p                        507  8.0    0.003    0.004  103.430  104.392
 sum_up_and_integrate               253  8.0    1.174    1.197  103.453  103.527
 integrate_v_rspace                 253  9.0    0.008    0.009  102.279  102.368
 cp_fm_syevd                        506 11.0    0.004    0.006   82.403   82.482
 cp_fm_redistribute_end             506 12.0   41.123   81.852   41.217   81.870
 cp_fm_syevd_base                   506 12.0   40.400   80.971   40.400   80.971
 qs_ot_p2m_diag                     500  9.0    1.052    1.237   80.484   80.808
 qs_ot_get_derivative               253  9.0    0.002    0.003   78.316   78.829
 xc_exc_calc                        252  9.0    0.378    0.415   78.200   78.201
 cp_dbcsr_syevd                     504 10.0    0.033    0.038   72.305   72.333
 xc_pw_divergence                   253 10.0    0.015    0.017   65.758   68.127
 grid_integrate_task_list           253 10.0   60.939   63.988   60.939   63.988
 rs_pw_transfer                    3798  9.0    0.036    0.042   56.532   61.969
 qs_ot_get_derivative_diag          249 10.0    0.006    0.008   53.511   54.039
 xc_functional_eval                 505 11.0    0.004    0.006   47.323   49.955
 pbe_lda_eval                       505 12.0   47.319   49.951   47.319   49.951
 qs_ot_get_orbitals                 505  8.0    0.003    0.004   44.681   45.764
 x_to_yz                           3286 14.8   20.211   22.469   40.199   45.246
 make_m2s                         15174 10.9    0.309    0.326   43.846   44.895
 mp_alltoall_z22v                  7082 14.9   33.056   42.708   33.056   42.708
 potential_pw2rs                    253 10.0    0.039    0.050   37.591   37.666
 make_images                      15174 11.9    0.880    0.960   31.516   31.938
 yz_to_x                           3037 13.2   11.173   12.240   24.214   28.387
 rs_pw_transfer_RS2PW_180           508  9.0    8.450    9.277   21.726   27.254
 mp_waitany                       33462 11.0   20.626   26.988   20.626   26.988
 calculate_dm_sparse                506  7.0    0.002    0.002   25.293   26.239
 pw_scatter_p                      3539 13.8   22.676   24.588   22.676   24.588
 init_scf_loop                        2  4.0    0.000    0.000   21.207   21.254
 pw_gather_p                       3543 12.1   19.654   21.195   19.654   21.195
 -------------------------------------------------------------------------------

 The number of warnings for this run is : 2
 
 -------------------------------------------------------------------------------
  **** **** ******  **  PROGRAM ENDED AT                 2025-01-29 16:21:48.167
 ***** ** ***  *** **   PROGRAM RAN ON                         c0226.ten.osc.edu
 **    ****   ******    PROGRAM RAN BY                                   xiutinc
 ***** **    ** ** **   PROGRAM PROCESS ID                               3516445
  **** **  *******  **  PROGRAM STOPPED IN /fs/scratch/PAS2536/xiutinc/396094.ad
                                           g02_01_02_propanol
