 DBCSR| CPU Multiplication driver                                           XSMM
 DBCSR| Multrec recursion limit                                              512
 DBCSR| Multiplication stack size                                           1000
 DBCSR| Maximum elements for images                                    UNLIMITED
 DBCSR| Multiplicative factor virtual images                                   1
 DBCSR| Use multiplication densification                                       T
 DBCSR| Multiplication size stacks                                             3
 DBCSR| Use memory pool for CPU allocation                                     F
 DBCSR| Number of 3D layers                                               SINGLE
 DBCSR| Use MPI memory allocation                                              F
 DBCSR| Use RMA algorithm                                                      F
 DBCSR| Use Communication thread                                               T
 DBCSR| Communication thread load                                             87
 DBCSR| MPI: My node id                                                        0
 DBCSR| MPI: Number of nodes                                                  20
 DBCSR| OMP: Current number of threads                                         1
 DBCSR| OMP: Max number of threads                                             1
 DBCSR| Split modifier for TAS multiplication algorithm                  1.0E+00


  **** **** ******  **  PROGRAM STARTED AT               2022-10-18 11:16:00.276
 ***** ** ***  *** **   PROGRAM STARTED ON         node1999.palmetto.clemson.edu
 **    ****   ******    PROGRAM STARTED BY                               xiutinc
 ***** **    ** ** **   PROGRAM PROCESS ID                               3627026
  **** **  *******  **  PROGRAM STARTED IN   /scratch1/xiutinc/CP2K-222654.pbs02

 CP2K| version string:                                          CP2K version 9.1
 CP2K| source code revision number:                                  git:d8d7100
 CP2K| cp2kflags: omp libint fftw3 libxc parallel mpi3 scalapack xsmm           
 CP2K| is freely available from                            https://www.cp2k.org/
 CP2K| Program compiled at                          Mon Aug  8 12:17:03 EDT 2022
 CP2K| Program compiled on                         node0352.palmetto.clemson.edu
 CP2K| Program compiled for                           linux-rocky8-ivybridge-gcc
 CP2K| Data directory path    /software/spackages/linux-rocky8-ivybridge/gcc-9.5
 CP2K| Input file name                                           intE03_g_sp.inp

 GLOBAL| Force Environment number                                              1
 GLOBAL| Basis set file name                                          BASIS_file
 GLOBAL| Potential file name                                     POTENTIALS_file
 GLOBAL| MM Potential file name                                     MM_POTENTIAL
 GLOBAL| Coordinate file name                                  ./intE03_g_sp.xyz
 GLOBAL| Method name                                                        CP2K
 GLOBAL| Project name                                                intE03_g_sp
 GLOBAL| Run type                                                         ENERGY
 GLOBAL| FFT library                                                       FFTW3
 GLOBAL| Diagonalization library                                       ScaLAPACK
 GLOBAL| Orthonormality check for eigenvectors                          DISABLED
 GLOBAL| Matrix multiplication library                                 ScaLAPACK
 GLOBAL| All-to-all communication in single precision                          F
 GLOBAL| FFTs using library dependent lengths                                  F
 GLOBAL| Grid backend                                                       AUTO
 GLOBAL| Global print level                                               MEDIUM
 GLOBAL| MPI I/O enabled                                                       T
 GLOBAL| Total number of message passing processes                            20
 GLOBAL| Number of threads for this process                                    1
 GLOBAL| This output is from process                                           0
 GLOBAL| Stack size for threads created by OpenMP (OMP_STACKSIZE)        default
 GLOBAL| CPU model name                Intel(R) Xeon(R) CPU E5-2670 v2 @ 2.50GHz
 GLOBAL| CPUID                                                              1001

 MEMORY| system memory details [Kb]
 MEMORY|                        rank 0           min           max       average
 MEMORY| MemTotal            131698652     131698652     131698652     131698652
 MEMORY| MemFree             122176580     122176580     122176580     122176580
 MEMORY| Buffers                  3380          3380          3380          3380
 MEMORY| Cached                3584060       3584060       3584060       3584060
 MEMORY| Slab                   830352        830352        830352        830352
 MEMORY| SReclaimable           356028        356028        356028        356028
 MEMORY| MemLikelyFree       126120048     126120048     126120048     126120048


 *** Fundamental physical constants (SI units) ***

 *** Literature: B. J. Mohr and B. N. Taylor,
 ***             CODATA recommended values of the fundamental physical
 ***             constants: 2006, Web Version 5.1
 ***             http://physics.nist.gov/constants

 Speed of light in vacuum [m/s]                             2.99792458000000E+08
 Magnetic constant or permeability of vacuum [N/A**2]       1.25663706143592E-06
 Electric constant or permittivity of vacuum [F/m]          8.85418781762039E-12
 Planck constant (h) [J*s]                                  6.62606896000000E-34
 Planck constant (h-bar) [J*s]                              1.05457162825177E-34
 Elementary charge [C]                                      1.60217648700000E-19
 Electron mass [kg]                                         9.10938215000000E-31
 Electron g factor [ ]                                     -2.00231930436220E+00
 Proton mass [kg]                                           1.67262163700000E-27
 Fine-structure constant                                    7.29735253760000E-03
 Rydberg constant [1/m]                                     1.09737315685270E+07
 Avogadro constant [1/mol]                                  6.02214179000000E+23
 Boltzmann constant [J/K]                                   1.38065040000000E-23
 Atomic mass unit [kg]                                      1.66053878200000E-27
 Bohr radius [m]                                            5.29177208590000E-11

 *** Conversion factors ***

 [u] -> [a.u.]                                              1.82288848426455E+03
 [Angstrom] -> [Bohr] = [a.u.]                              1.88972613288564E+00
 [a.u.] = [Bohr] -> [Angstrom]                              5.29177208590000E-01
 [a.u.] -> [s]                                              2.41888432650478E-17
 [a.u.] -> [fs]                                             2.41888432650478E-02
 [a.u.] -> [J]                                              4.35974393937059E-18
 [a.u.] -> [N]                                              8.23872205491840E-08
 [a.u.] -> [K]                                              3.15774647902944E+05
 [a.u.] -> [kJ/mol]                                         2.62549961709828E+03
 [a.u.] -> [kcal/mol]                                       6.27509468713739E+02
 [a.u.] -> [Pa]                                             2.94210107994716E+13
 [a.u.] -> [bar]                                            2.94210107994716E+08
 [a.u.] -> [atm]                                            2.90362800883016E+08
 [a.u.] -> [eV]                                             2.72113838565563E+01
 [a.u.] -> [Hz]                                             6.57968392072181E+15
 [a.u.] -> [1/cm] (wave numbers)                            2.19474631370540E+05
 [a.u./Bohr**2] -> [1/cm]                                   5.14048714338585E+03
 

 CELL_TOP| Volume [angstrom^3]:                                     14585.804391
 CELL_TOP| Vector a [angstrom    24.433     0.000     0.000   |a| =    24.433000
 CELL_TOP| Vector b [angstrom     0.000    24.433     0.000   |b| =    24.433000
 CELL_TOP| Vector c [angstrom     0.000     0.000    24.433   |c| =    24.433000
 CELL_TOP| Angle (b,c), alpha [degree]:                                90.000000
 CELL_TOP| Angle (a,c), beta  [degree]:                                90.000000
 CELL_TOP| Angle (a,b), gamma [degree]:                                90.000000
 CELL_TOP| Numerically orthorhombic:                                         YES

 CELL| Volume [angstrom^3]:                                         14585.804391
 CELL| Vector a [angstrom]:      24.433     0.000     0.000   |a| =    24.433000
 CELL| Vector b [angstrom]:       0.000    24.433     0.000   |b| =    24.433000
 CELL| Vector c [angstrom]:       0.000     0.000    24.433   |c| =    24.433000
 CELL| Angle (b,c), alpha [degree]:                                    90.000000
 CELL| Angle (a,c), beta  [degree]:                                    90.000000
 CELL| Angle (a,b), gamma [degree]:                                    90.000000
 CELL| Numerically orthorhombic:                                             YES

 CELL_REF| Volume [angstrom^3]:                                     14585.804391
 CELL_REF| Vector a [angstrom    24.433     0.000     0.000   |a| =    24.433000
 CELL_REF| Vector b [angstrom     0.000    24.433     0.000   |b| =    24.433000
 CELL_REF| Vector c [angstrom     0.000     0.000    24.433   |c| =    24.433000
 CELL_REF| Angle (b,c), alpha [degree]:                                90.000000
 CELL_REF| Angle (a,c), beta  [degree]:                                90.000000
 CELL_REF| Angle (a,b), gamma [degree]:                                90.000000
 CELL_REF| Numerically orthorhombic:                                         YES

 *******************************************************************************
 *******************************************************************************
 **                                                                           **
 **     #####                         ##              ##                      **
 **    ##   ##            ##          ##              ##                      **
 **   ##     ##                       ##            ######                    **
 **   ##     ##  ##   ##  ##   #####  ##  ##   ####   ##    #####    #####    **
 **   ##     ##  ##   ##  ##  ##      ## ##   ##      ##   ##   ##  ##   ##   **
 **   ##  ## ##  ##   ##  ##  ##      ####     ###    ##   ######   ######    **
 **    ##  ###   ##   ##  ##  ##      ## ##      ##   ##   ##       ##        **
 **     #######   #####   ##   #####  ##  ##  ####    ##    #####   ##        **
 **           ##                                                    ##        **
 **                                                                           **
 **                                                ... make the atoms dance   **
 **                                                                           **
 **            Copyright (C) by CP2K developers group (2000-2021)             **
 **                      J. Chem. Phys. 152, 194103 (2020)                    **
 **                                                                           **
 *******************************************************************************

 DFT| Spin restricted Kohn-Sham (RKS) calculation                            RKS
 DFT| Multiplicity                                                             1
 DFT| Number of spin states                                                    1
 DFT| Charge                                                                   0
 DFT| Self-interaction correction (SIC)                                       NO
 DFT| Cutoffs: density                                              1.000000E-10
 DFT|          gradient                                             1.000000E-10
 DFT|          tau                                                  1.000000E-10
 DFT|          cutoff_smoothing_range                               0.000000E+00
 DFT| XC density smoothing                                                  NONE
 DFT| XC derivatives                                                          PW
 FUNCTIONAL| ROUTINE=NEW
 FUNCTIONAL| PBE:
 FUNCTIONAL| J.P.Perdew, K.Burke, M.Ernzerhof, Phys. Rev. Letter, vol. 77, n 18,
 FUNCTIONAL|  pp. 3865-3868, (1996){spin unpolarized}                           
 vdW POTENTIAL|                                                   Pair Potential
 vdW POTENTIAL|          DFT-D3 (Version 3.1)
 vdW POTENTIAL|          Potential Form: S. Grimme et al, JCP 132: 154104 (2010)
 vdW POTENTIAL|          BJ Damping: S. Grimme et al, JCC 32: 1456 (2011)
 vdW POTENTIAL|          Cutoff Radius [Bohr]:                             20.00
 vdW POTENTIAL|          s6 Scaling Factor:                               1.0000
 vdW POTENTIAL|          a1 Damping Factor:                               0.4289
 vdW POTENTIAL|          s8 Scaling Factor:                               0.7875
 vdW POTENTIAL|          a2 Damping Factor:                               4.4407
 vdW POTENTIAL|          Cutoff for CN calculation:                   0.1000E-05

 QS| Method:                                                                 GPW
 QS| Density plane wave grid type                        NON-SPHERICAL FULLSPACE
 QS| Number of grid levels:                                                    5
 QS| Density cutoff [a.u.]:                                                180.0
 QS| Multi grid cutoff [a.u.]: 1) grid level                               180.0
 QS|                           2) grid level                                60.0
 QS|                           3) grid level                                20.0
 QS|                           4) grid level                                 6.7
 QS|                           5) grid level                                 2.2
 QS| Grid level progression factor:                                          3.0
 QS| Relative density cutoff [a.u.]:                                        40.0
 QS| Interaction thresholds: eps_pgf_orb:                                1.0E-05
 QS|                         eps_filter_matrix:                          0.0E+00
 QS|                         eps_core_charge:                            1.0E-12
 QS|                         eps_rho_gspace:                             1.0E-10
 QS|                         eps_rho_rspace:                             1.0E-10
 QS|                         eps_gvg_rspace:                             1.0E-05
 QS|                         eps_ppl:                                    1.0E-02
 QS|                         eps_ppnl:                                   1.0E-07


 ATOMIC KIND INFORMATION

  1. Atomic kind: Ti                                    Number of atoms:       1

     Orbital Basis Set                                    DZVP-MOLOPT-SR-GTH-q12

       Number of orbital shell sets:                                           1
       Number of orbital shells:                                               8
       Number of primitive Cartesian functions:                                6
       Number of Cartesian basis functions:                                   31
       Number of spherical basis functions:                                   26
       Norm type:                                                              2

       Normalised Cartesian orbitals:

                        Set   Shell   Orbital            Exponent    Coefficient

                          1       1    2s                7.884570       0.015554
                                                         3.894698       0.963603
                                                         1.513589      -0.631435
                                                         0.596768      -0.343022
                                                         0.222222      -0.006534
                                                         0.077078       0.007652

                          1       2    3s                7.884570      -0.009340
                                                         3.894698       0.212624
                                                         1.513589      -0.258368
                                                         0.596768      -0.226206
                                                         0.222222       0.039438
                                                         0.077078       0.107179

                          1       3    4s                7.884570       0.276563
                                                         3.894698       0.105452
                                                         1.513589       0.085149
                                                         0.596768       0.882541
                                                         0.222222      -0.696223
                                                         0.077078       0.156638

                          1       4    3px               7.884570      -2.034794
                                                         3.894698       0.782008
                                                         1.513589       1.253903
                                                         0.596768       0.347823
                                                         0.222222       0.016778
                                                         0.077078      -0.000433
                          1       4    3py               7.884570      -2.034794
                                                         3.894698       0.782008
                                                         1.513589       1.253903
                                                         0.596768       0.347823
                                                         0.222222       0.016778
                                                         0.077078      -0.000433
                          1       4    3pz               7.884570      -2.034794
                                                         3.894698       0.782008
                                                         1.513589       1.253903
                                                         0.596768       0.347823
                                                         0.222222       0.016778
                                                         0.077078      -0.000433

                          1       5    4px               7.884570       0.376572
                                                         3.894698      -0.182875
                                                         1.513589      -0.474776
                                                         0.596768      -0.081757
                                                         0.222222       0.064432
                                                         0.077078       0.047279
                          1       5    4py               7.884570       0.376572
                                                         3.894698      -0.182875
                                                         1.513589      -0.474776
                                                         0.596768      -0.081757
                                                         0.222222       0.064432
                                                         0.077078       0.047279
                          1       5    4pz               7.884570       0.376572
                                                         3.894698      -0.182875
                                                         1.513589      -0.474776
                                                         0.596768      -0.081757
                                                         0.222222       0.064432
                                                         0.077078       0.047279

                          1       6    4dx2              7.884570       3.047350
                                                         3.894698       3.289529
                                                         1.513589       1.060616
                                                         0.596768       0.249930
                                                         0.222222       0.038806
                                                         0.077078       0.002319
                          1       6    4dxy              7.884570       5.278165
                                                         3.894698       5.697631
                                                         1.513589       1.837041
                                                         0.596768       0.432892
                                                         0.222222       0.067214
                                                         0.077078       0.004017
                          1       6    4dxz              7.884570       5.278165
                                                         3.894698       5.697631
                                                         1.513589       1.837041
                                                         0.596768       0.432892
                                                         0.222222       0.067214
                                                         0.077078       0.004017
                          1       6    4dy2              7.884570       3.047350
                                                         3.894698       3.289529
                                                         1.513589       1.060616
                                                         0.596768       0.249930
                                                         0.222222       0.038806
                                                         0.077078       0.002319
                          1       6    4dyz              7.884570       5.278165
                                                         3.894698       5.697631
                                                         1.513589       1.837041
                                                         0.596768       0.432892
                                                         0.222222       0.067214
                                                         0.077078       0.004017
                          1       6    4dz2              7.884570       3.047350
                                                         3.894698       3.289529
                                                         1.513589       1.060616
                                                         0.596768       0.249930
                                                         0.222222       0.038806
                                                         0.077078       0.002319

                          1       7    5dx2              7.884570      -2.119015
                                                         3.894698      -1.237751
                                                         1.513589      -0.746777
                                                         0.596768      -0.071514
                                                         0.222222       0.004086
                                                         0.077078       0.017595
                          1       7    5dxy              7.884570      -3.670241
                                                         3.894698      -2.143848
                                                         1.513589      -1.293455
                                                         0.596768      -0.123865
                                                         0.222222       0.007077
                                                         0.077078       0.030475
                          1       7    5dxz              7.884570      -3.670241
                                                         3.894698      -2.143848
                                                         1.513589      -1.293455
                                                         0.596768      -0.123865
                                                         0.222222       0.007077
                                                         0.077078       0.030475
                          1       7    5dy2              7.884570      -2.119015
                                                         3.894698      -1.237751
                                                         1.513589      -0.746777
                                                         0.596768      -0.071514
                                                         0.222222       0.004086
                                                         0.077078       0.017595
                          1       7    5dyz              7.884570      -3.670241
                                                         3.894698      -2.143848
                                                         1.513589      -1.293455
                                                         0.596768      -0.123865
                                                         0.222222       0.007077
                                                         0.077078       0.030475
                          1       7    5dz2              7.884570      -2.119015
                                                         3.894698      -1.237751
                                                         1.513589      -0.746777
                                                         0.596768      -0.071514
                                                         0.222222       0.004086
                                                         0.077078       0.017595

                          1       8    5fx3              7.884570      -0.342058
                                                         3.894698       0.375798
                                                         1.513589      -0.706469
                                                         0.596768      -0.229994
                                                         0.222222      -0.012723
                                                         0.077078       0.003932
                          1       8    5fx2y             7.884570      -0.764866
                                                         3.894698       0.840310
                                                         1.513589      -1.579712
                                                         0.596768      -0.514282
                                                         0.222222      -0.028450
                                                         0.077078       0.008792
                          1       8    5fx2z             7.884570      -0.764866
                                                         3.894698       0.840310
                                                         1.513589      -1.579712
                                                         0.596768      -0.514282
                                                         0.222222      -0.028450
                                                         0.077078       0.008792
                          1       8    5fxy2             7.884570      -0.764866
                                                         3.894698       0.840310
                                                         1.513589      -1.579712
                                                         0.596768      -0.514282
                                                         0.222222      -0.028450
                                                         0.077078       0.008792
                          1       8    5fxyz             7.884570      -1.324787
                                                         3.894698       1.455460
                                                         1.513589      -2.736142
                                                         0.596768      -0.890763
                                                         0.222222      -0.049276
                                                         0.077078       0.015229
                          1       8    5fxz2             7.884570      -0.764866
                                                         3.894698       0.840310
                                                         1.513589      -1.579712
                                                         0.596768      -0.514282
                                                         0.222222      -0.028450
                                                         0.077078       0.008792
                          1       8    5fy3              7.884570      -0.342058
                                                         3.894698       0.375798
                                                         1.513589      -0.706469
                                                         0.596768      -0.229994
                                                         0.222222      -0.012723
                                                         0.077078       0.003932
                          1       8    5fy2z             7.884570      -0.764866
                                                         3.894698       0.840310
                                                         1.513589      -1.579712
                                                         0.596768      -0.514282
                                                         0.222222      -0.028450
                                                         0.077078       0.008792
                          1       8    5fyz2             7.884570      -0.764866
                                                         3.894698       0.840310
                                                         1.513589      -1.579712
                                                         0.596768      -0.514282
                                                         0.222222      -0.028450
                                                         0.077078       0.008792
                          1       8    5fz3              7.884570      -0.342058
                                                         3.894698       0.375798
                                                         1.513589      -0.706469
                                                         0.596768      -0.229994
                                                         0.222222      -0.012723
                                                         0.077078       0.003932

       Atomic covalent radius [Angstrom]:                                  1.320

       Atomic van der Waals radius [Angstrom]:                             1.760

     GTH Potential information for                                   GTH-PBE-q12

       Description:                       Goedecker-Teter-Hutter pseudopotential
                                           Goedecker et al., PRB 54, 1703 (1996)
                                          Hartwigsen et al., PRB 58, 3641 (1998)
                                                      Krack, TCA 114, 145 (2005)

       Gaussian exponent of the core charge distribution:               3.462604
       Electronic configuration (s p d ...):                           4   6   2

       Parameters of the local part of the GTH pseudopotential:

                          rloc        C1          C2          C3          C4
                        0.380000    8.711442   -0.700287

       Parameters of the non-local part of the GTH pseudopotential:

                   l      r(l)      h(i,j,l)

                   0    0.337771    2.575264    3.692971
                                    3.692971   -4.767605
                   1    0.242531   -4.630541    8.870875
                                    8.870875  -10.496161
                   2    0.243317   -9.406653

  2. Atomic kind: Si                                    Number of atoms:     190

     Orbital Basis Set                                     DZVP-MOLOPT-SR-GTH-q4

       Number of orbital shell sets:                                           1
       Number of orbital shells:                                               5
       Number of primitive Cartesian functions:                                4
       Number of Cartesian basis functions:                                   14
       Number of spherical basis functions:                                   13
       Norm type:                                                              2

       Normalised Cartesian orbitals:

                        Set   Shell   Orbital            Exponent    Coefficient

                          1       1    2s                1.256768       0.294045
                                                         0.506394      -0.015884
                                                         0.238884      -0.207657
                                                         0.087337      -0.036225

                          1       2    3s                1.256768      -1.532347
                                                         0.506394       0.524539
                                                         0.238884       0.025013
                                                         0.087337      -0.052203

                          1       3    3px               1.256768       0.152274
                                                         0.506394      -0.154145
                                                         0.238884      -0.115581
                                                         0.087337      -0.028372
                          1       3    3py               1.256768       0.152274
                                                         0.506394      -0.154145
                                                         0.238884      -0.115581
                                                         0.087337      -0.028372
                          1       3    3pz               1.256768       0.152274
                                                         0.506394      -0.154145
                                                         0.238884      -0.115581
                                                         0.087337      -0.028372

                          1       4    4px               1.256768       0.313378
                                                         0.506394      -0.415360
                                                         0.238884      -0.022539
                                                         0.087337       0.078473
                          1       4    4py               1.256768       0.313378
                                                         0.506394      -0.415360
                                                         0.238884      -0.022539
                                                         0.087337       0.078473
                          1       4    4pz               1.256768       0.313378
                                                         0.506394      -0.415360
                                                         0.238884      -0.022539
                                                         0.087337       0.078473

                          1       5    4dx2              1.256768       0.325879
                                                         0.506394       0.163831
                                                         0.238884       0.044076
                                                         0.087337       0.010608
                          1       5    4dxy              1.256768       0.564439
                                                         0.506394       0.283764
                                                         0.238884       0.076342
                                                         0.087337       0.018373
                          1       5    4dxz              1.256768       0.564439
                                                         0.506394       0.283764
                                                         0.238884       0.076342
                                                         0.087337       0.018373
                          1       5    4dy2              1.256768       0.325879
                                                         0.506394       0.163831
                                                         0.238884       0.044076
                                                         0.087337       0.010608
                          1       5    4dyz              1.256768       0.564439
                                                         0.506394       0.283764
                                                         0.238884       0.076342
                                                         0.087337       0.018373
                          1       5    4dz2              1.256768       0.325879
                                                         0.506394       0.163831
                                                         0.238884       0.044076
                                                         0.087337       0.010608

       Atomic covalent radius [Angstrom]:                                  1.110

       Atomic van der Waals radius [Angstrom]:                             2.100

     GTH Potential information for                                    GTH-PBE-q4

       Description:                       Goedecker-Teter-Hutter pseudopotential
                                           Goedecker et al., PRB 54, 1703 (1996)
                                          Hartwigsen et al., PRB 58, 3641 (1998)
                                                      Krack, TCA 114, 145 (2005)

       Gaussian exponent of the core charge distribution:               2.582645
       Electronic configuration (s p d ...):                               2   2

       Parameters of the local part of the GTH pseudopotential:

                          rloc        C1          C2          C3          C4
                        0.440000   -6.269288

       Parameters of the non-local part of the GTH pseudopotential:

                   l      r(l)      h(i,j,l)

                   0    0.435634    8.951742   -2.706271
                                   -2.706271    3.493781
                   1    0.497942    2.431277

  3. Atomic kind: O                                     Number of atoms:     386

     Orbital Basis Set                                     DZVP-MOLOPT-SR-GTH-q6

       Number of orbital shell sets:                                           1
       Number of orbital shells:                                               5
       Number of primitive Cartesian functions:                                5
       Number of Cartesian basis functions:                                   14
       Number of spherical basis functions:                                   13
       Norm type:                                                              2

       Normalised Cartesian orbitals:

                        Set   Shell   Orbital            Exponent    Coefficient

                          1       1    2s               10.389228       0.396646
                                                         3.849621       0.208811
                                                         1.388401      -0.301641
                                                         0.496955      -0.274061
                                                         0.162492      -0.033677

                          1       2    3s               10.389228       0.303673
                                                         3.849621       0.240943
                                                         1.388401      -0.313066
                                                         0.496955      -0.043055
                                                         0.162492       0.213991

                          1       3    3px              10.389228      -1.530415
                                                         3.849621      -1.371928
                                                         1.388401      -0.761951
                                                         0.496955      -0.253695
                                                         0.162492      -0.035541
                          1       3    3py              10.389228      -1.530415
                                                         3.849621      -1.371928
                                                         1.388401      -0.761951
                                                         0.496955      -0.253695
                                                         0.162492      -0.035541
                          1       3    3pz              10.389228      -1.530415
                                                         3.849621      -1.371928
                                                         1.388401      -0.761951
                                                         0.496955      -0.253695
                                                         0.162492      -0.035541

                          1       4    4px              10.389228      -0.565392
                                                         3.849621      -0.038231
                                                         1.388401      -0.382373
                                                         0.496955       0.179070
                                                         0.162492       0.122714
                          1       4    4py              10.389228      -0.565392
                                                         3.849621      -0.038231
                                                         1.388401      -0.382373
                                                         0.496955       0.179070
                                                         0.162492       0.122714
                          1       4    4pz              10.389228      -0.565392
                                                         3.849621      -0.038231
                                                         1.388401      -0.382373
                                                         0.496955       0.179070
                                                         0.162492       0.122714

                          1       5    4dx2             10.389228       1.867377
                                                         3.849621       0.670994
                                                         1.388401       1.353441
                                                         0.496955       0.273538
                                                         0.162492       0.006620
                          1       5    4dxy             10.389228       3.234392
                                                         3.849621       1.162195
                                                         1.388401       2.344229
                                                         0.496955       0.473781
                                                         0.162492       0.011466
                          1       5    4dxz             10.389228       3.234392
                                                         3.849621       1.162195
                                                         1.388401       2.344229
                                                         0.496955       0.473781
                                                         0.162492       0.011466
                          1       5    4dy2             10.389228       1.867377
                                                         3.849621       0.670994
                                                         1.388401       1.353441
                                                         0.496955       0.273538
                                                         0.162492       0.006620
                          1       5    4dyz             10.389228       3.234392
                                                         3.849621       1.162195
                                                         1.388401       2.344229
                                                         0.496955       0.473781
                                                         0.162492       0.011466
                          1       5    4dz2             10.389228       1.867377
                                                         3.849621       0.670994
                                                         1.388401       1.353441
                                                         0.496955       0.273538
                                                         0.162492       0.006620

       Atomic covalent radius [Angstrom]:                                  0.730

       Atomic van der Waals radius [Angstrom]:                             1.520

     GTH Potential information for                                    GTH-PBE-q6

       Description:                       Goedecker-Teter-Hutter pseudopotential
                                           Goedecker et al., PRB 54, 1703 (1996)
                                          Hartwigsen et al., PRB 58, 3641 (1998)
                                                      Krack, TCA 114, 145 (2005)

       Gaussian exponent of the core charge distribution:               8.360253
       Electronic configuration (s p d ...):                               2   4

       Parameters of the local part of the GTH pseudopotential:

                          rloc        C1          C2          C3          C4
                        0.244554  -16.667215    2.487311

       Parameters of the non-local part of the GTH pseudopotential:

                   l      r(l)      h(i,j,l)

                   0    0.220956   18.337458
                   1    0.211332

  4. Atomic kind: H                                     Number of atoms:      12

     Orbital Basis Set                                     DZVP-MOLOPT-SR-GTH-q1

       Number of orbital shell sets:                                           1
       Number of orbital shells:                                               3
       Number of primitive Cartesian functions:                                5
       Number of Cartesian basis functions:                                    5
       Number of spherical basis functions:                                    5
       Norm type:                                                              2

       Normalised Cartesian orbitals:

                        Set   Shell   Orbital            Exponent    Coefficient

                          1       1    2s               10.068468      -0.133023
                                                         2.680223      -0.177618
                                                         0.791502      -0.258419
                                                         0.239116      -0.107525
                                                         0.082193      -0.014019

                          1       2    3s               10.068468       0.344673
                                                         2.680223       1.819821
                                                         0.791502      -0.999069
                                                         0.239116       0.017430
                                                         0.082193       0.082660

                          1       3    3px              10.068468       0.155326
                                                         2.680223       0.367157
                                                         0.791502       0.311480
                                                         0.239116       0.080105
                                                         0.082193       0.033440
                          1       3    3py              10.068468       0.155326
                                                         2.680223       0.367157
                                                         0.791502       0.311480
                                                         0.239116       0.080105
                                                         0.082193       0.033440
                          1       3    3pz              10.068468       0.155326
                                                         2.680223       0.367157
                                                         0.791502       0.311480
                                                         0.239116       0.080105
                                                         0.082193       0.033440

       Atomic covalent radius [Angstrom]:                                  0.320

       Atomic van der Waals radius [Angstrom]:                             1.090

     GTH Potential information for                                    GTH-PBE-q1

       Description:                       Goedecker-Teter-Hutter pseudopotential
                                           Goedecker et al., PRB 54, 1703 (1996)
                                          Hartwigsen et al., PRB 58, 3641 (1998)
                                                      Krack, TCA 114, 145 (2005)

       Gaussian exponent of the core charge distribution:              12.500000
       Electronic configuration (s p d ...):                                   1

       Parameters of the local part of the GTH pseudopotential:

                          rloc        C1          C2          C3          C4
                        0.200000   -4.178900    0.724463

  5. Atomic kind: C                                     Number of atoms:       3

     Orbital Basis Set                                     DZVP-MOLOPT-SR-GTH-q4

       Number of orbital shell sets:                                           1
       Number of orbital shells:                                               5
       Number of primitive Cartesian functions:                                5
       Number of Cartesian basis functions:                                   14
       Number of spherical basis functions:                                   13
       Norm type:                                                              2

       Normalised Cartesian orbitals:

                        Set   Shell   Orbital            Exponent    Coefficient

                          1       1    2s                5.605331       0.322515
                                                         2.113016       0.213043
                                                         0.769911      -0.209686
                                                         0.348157      -0.219794
                                                         0.128212      -0.022789

                          1       2    3s                5.605331       0.552234
                                                         2.113016       0.082072
                                                         0.769911       0.007843
                                                         0.348157       0.136893
                                                         0.128212       0.074283

                          1       3    3px               5.605331      -0.703879
                                                         2.113016      -0.642521
                                                         0.769911      -0.374851
                                                         0.348157      -0.139743
                                                         0.128212      -0.027849
                          1       3    3py               5.605331      -0.703879
                                                         2.113016      -0.642521
                                                         0.769911      -0.374851
                                                         0.348157      -0.139743
                                                         0.128212      -0.027849
                          1       3    3pz               5.605331      -0.703879
                                                         2.113016      -0.642521
                                                         0.769911      -0.374851
                                                         0.348157      -0.139743
                                                         0.128212      -0.027849

                          1       4    4px               5.605331      -0.480376
                                                         2.113016      -0.552894
                                                         0.769911      -0.316145
                                                         0.348157       0.210505
                                                         0.128212       0.076095
                          1       4    4py               5.605331      -0.480376
                                                         2.113016      -0.552894
                                                         0.769911      -0.316145
                                                         0.348157       0.210505
                                                         0.128212       0.076095
                          1       4    4pz               5.605331      -0.480376
                                                         2.113016      -0.552894
                                                         0.769911      -0.316145
                                                         0.348157       0.210505
                                                         0.128212       0.076095

                          1       5    4dx2              5.605331       0.640026
                                                         2.113016       0.274300
                                                         0.769911       0.446711
                                                         0.348157       0.028674
                                                         0.128212       0.029790
                          1       5    4dxy              5.605331       1.108557
                                                         2.113016       0.475102
                                                         0.769911       0.773726
                                                         0.348157       0.049666
                                                         0.128212       0.051599
                          1       5    4dxz              5.605331       1.108557
                                                         2.113016       0.475102
                                                         0.769911       0.773726
                                                         0.348157       0.049666
                                                         0.128212       0.051599
                          1       5    4dy2              5.605331       0.640026
                                                         2.113016       0.274300
                                                         0.769911       0.446711
                                                         0.348157       0.028674
                                                         0.128212       0.029790
                          1       5    4dyz              5.605331       1.108557
                                                         2.113016       0.475102
                                                         0.769911       0.773726
                                                         0.348157       0.049666
                                                         0.128212       0.051599
                          1       5    4dz2              5.605331       0.640026
                                                         2.113016       0.274300
                                                         0.769911       0.446711
                                                         0.348157       0.028674
                                                         0.128212       0.029790

       Atomic covalent radius [Angstrom]:                                  0.770

       Atomic van der Waals radius [Angstrom]:                             1.700

     GTH Potential information for                                    GTH-PBE-q4

       Description:                       Goedecker-Teter-Hutter pseudopotential
                                           Goedecker et al., PRB 54, 1703 (1996)
                                          Hartwigsen et al., PRB 58, 3641 (1998)
                                                      Krack, TCA 114, 145 (2005)

       Gaussian exponent of the core charge distribution:               4.364419
       Electronic configuration (s p d ...):                               2   2

       Parameters of the local part of the GTH pseudopotential:

                          rloc        C1          C2          C3          C4
                        0.338471   -8.803674    1.339211

       Parameters of the non-local part of the GTH pseudopotential:

                   l      r(l)      h(i,j,l)

                   0    0.302576    9.622487
                   1    0.291507


 MOLECULE KIND INFORMATION


 All atoms are their own molecule, skipping detailed information


 TOTAL NUMBERS AND MAXIMUM NUMBERS

  Total number of            - Atomic kinds:                                   5
                             - Atoms:                                        592
                             - Shell sets:                                   592
                             - Shells:                                      2939
                             - Primitive Cartesian functions:               2771
                             - Cartesian basis functions:                   8197
                             - Spherical basis functions:                   7613

  Maximum angular momentum of- Orbital basis functions:                        3
                             - Local part of the GTH pseudopotential:          2
                             - Non-local part of the GTH pseudopotential:      3


 MODULE QUICKSTEP:  ATOMIC COORDINATES IN angstrom

 Atom  Kind  Element       X           Y           Z          Z(eff)       Mass
    1   1 Ti  22      10.593200   15.287000   12.981100      12.0000     47.8670
    2   2 Si  14      19.613100    3.043630    0.969280       4.0000     28.0855
    3   2 Si  14      21.389200    1.288470    7.077330       4.0000     28.0855
    4   2 Si  14      19.613000    3.064870    5.297820       4.0000     28.0855
    5   2 Si  14      21.368100    1.288540   11.405900       4.0000     28.0855
    6   2 Si  14      17.435100    7.396620    3.143910       4.0000     28.0855
    7   2 Si  14      17.036300   23.543400    9.252260       4.0000     28.0855
    8   2 Si  14      17.434900   23.144600    3.122910       4.0000     28.0855
    9   2 Si  14       1.288280   23.543500    9.230860       4.0000     28.0855
   10   2 Si  14       3.064600    0.890460   11.007200       4.0000     28.0855
   11   2 Si  14       6.998150   21.389400    1.367850       4.0000     28.0855
   12   2 Si  14       3.045910   13.108800    7.463260       4.0000     28.0855
   13   2 Si  14      23.543200    9.151850    1.367900       4.0000     28.0855
   14   2 Si  14       3.043680    5.218580   11.007400       4.0000     28.0855
   15   2 Si  14      11.329800    9.174760    4.903570       4.0000     28.0855
   16   2 Si  14       1.287820   21.368500   11.405800       4.0000     28.0855
   17   2 Si  14       3.064660   19.613500    5.296990       4.0000     28.0855
   18   2 Si  14       1.288320   21.389600    7.076930       4.0000     28.0855
   19   2 Si  14       3.043640   19.613100    0.969190       4.0000     28.0855
   20   2 Si  14      23.542900    1.288630    9.231150       4.0000     28.0855
   21   2 Si  14      23.144500   17.434700    3.123000       4.0000     28.0855
   22   2 Si  14      23.542800   17.035900    9.251960       4.0000     28.0855
   23   2 Si  14       7.397040   17.434600    3.144250       4.0000     28.0855
   24   2 Si  14       9.152750    6.999110    4.899540       4.0000     28.0855
   25   2 Si  14      17.434700    3.065020    7.476120       4.0000     28.0855
   26   2 Si  14      23.144600   15.281100    0.969290       4.0000     28.0855
   27   2 Si  14      21.368000   17.036100    7.077340       4.0000     28.0855
   28   2 Si  14      23.144400   15.259900    5.297740       4.0000     28.0855
   29   2 Si  14      21.389100   17.036100   11.406000       4.0000     28.0855
   30   2 Si  14       0.889830   10.928000    3.143990       4.0000     28.0855
   31   2 Si  14       1.287740   19.214500    9.251940       4.0000     28.0855
   32   2 Si  14       0.889670   19.613100    3.122680       4.0000     28.0855
   33   2 Si  14      17.045400   19.221500    9.227480       4.0000     28.0855
   34   2 Si  14      15.281100    5.218810    7.476180       4.0000     28.0855
   35   2 Si  14       6.998510    9.152100    4.898990       4.0000     28.0855
   36   2 Si  14       4.818900    9.173220   11.404100       4.0000     28.0855
   37   2 Si  14       3.043250   10.926700    5.296450       4.0000     28.0855
   38   2 Si  14       4.818960    9.149760    7.075230       4.0000     28.0855
   39   2 Si  14       3.064850   10.928100    0.969530       4.0000     28.0855
   40   2 Si  14       6.998390    4.819920    9.231060       4.0000     28.0855
   41   2 Si  14       7.398230   13.104000    3.121040       4.0000     28.0855
   42   2 Si  14       6.973810   13.515800    9.261360       4.0000     28.0855
   43   2 Si  14      23.144700   13.106100    3.144170       4.0000     28.0855
   44   2 Si  14      21.368300   11.326700    1.367960       4.0000     28.0855
   45   2 Si  14      17.435100   15.259200   11.007400       4.0000     28.0855
   46   2 Si  14      21.389400   23.543300    4.899210       4.0000     28.0855
   47   2 Si  14       0.889710    3.064980   11.007400       4.0000     28.0855
   48   2 Si  14      21.389400    6.998180    1.367930       4.0000     28.0855
   49   2 Si  14      13.106300    3.043820    7.476120       4.0000     28.0855
   50   2 Si  14      10.928100    3.064900    0.969430       4.0000     28.0855
   51   2 Si  14       9.151950    4.820160    7.077250       4.0000     28.0855
   52   2 Si  14      10.928200    3.043780    5.297840       4.0000     28.0855
   53   2 Si  14       9.173260    4.819470   11.405500       4.0000     28.0855
   54   2 Si  14      13.106200   23.144600    3.144050       4.0000     28.0855
   55   2 Si  14      13.505300    6.999870    9.251920       4.0000     28.0855
   56   2 Si  14      13.106100    7.397170    3.123620       4.0000     28.0855
   57   2 Si  14       4.819920    6.997950    9.230720       4.0000     28.0855
   58   2 Si  14       3.062640   17.435500    7.474560       4.0000     28.0855
   59   2 Si  14      19.214800   21.368400    4.898880       4.0000     28.0855
   60   2 Si  14      17.036800   21.389700   11.405800       4.0000     28.0855
   61   2 Si  14      15.259900   23.145000    5.297580       4.0000     28.0855
   62   2 Si  14      17.036800   21.370000    7.076020       4.0000     28.0855
   63   2 Si  14      15.281200   23.144600    0.969250       4.0000     28.0855
   64   2 Si  14      19.214800   17.035800    9.231060       4.0000     28.0855
   65   2 Si  14      19.613100    0.889920    3.122970       4.0000     28.0855
   66   2 Si  14      19.214300    1.288510    9.252230       4.0000     28.0855
   67   2 Si  14      10.928100    0.889950    3.144170       4.0000     28.0855
   68   2 Si  14       9.151830   23.543200    1.367890       4.0000     28.0855
   69   2 Si  14       5.218710    3.044010   11.007500       4.0000     28.0855
   70   2 Si  14       9.173490   11.328000    4.900850       4.0000     28.0855
   71   2 Si  14      13.192100   15.277400   10.834100       4.0000     28.0855
   72   2 Si  14       9.172930   19.214400    1.367870       4.0000     28.0855
   73   2 Si  14       0.889950   15.259300    7.475720       4.0000     28.0855
   74   2 Si  14       7.396790   15.259800    0.969640       4.0000     28.0855
   75   2 Si  14       9.171370   13.506400    7.086250       4.0000     28.0855
   76   2 Si  14       7.387870   15.281500    5.290280       4.0000     28.0855
   77   2 Si  14       5.218850   19.612700    3.143940       4.0000     28.0855
   78   2 Si  14       4.813670   11.323400    9.245400       4.0000     28.0855
   79   2 Si  14       5.218670   10.928100    3.122960       4.0000     28.0855
   80   2 Si  14      13.520000   11.311700    9.213790       4.0000     28.0855
   81   2 Si  14      15.282800   13.103700   11.007000       4.0000     28.0855
   82   2 Si  14      19.214500    9.173000    1.367940       4.0000     28.0855
   83   2 Si  14      15.260000    0.890050    7.476060       4.0000     28.0855
   84   2 Si  14      11.326700   21.368200    1.367870       4.0000     28.0855
   85   2 Si  14      15.280100   17.440600   10.989800       4.0000     28.0855
   86   2 Si  14      23.542900   21.389300    4.899040       4.0000     28.0855
   87   2 Si  14      13.504500    9.152620   11.405600       4.0000     28.0855
   88   2 Si  14      15.281900    7.394980    5.296500       4.0000     28.0855
   89   2 Si  14      13.518100    9.178020    7.080220       4.0000     28.0855
   90   2 Si  14      15.259800    7.396760    0.969590       4.0000     28.0855
   91   2 Si  14      11.437000   13.526000    9.176210       4.0000     28.0855
   92   2 Si  14      10.928100    5.218880    3.123090       4.0000     28.0855
   93   2 Si  14      11.327200    4.820320    9.252280       4.0000     28.0855
   94   2 Si  14      19.613200    5.218560    3.144150       4.0000     28.0855
   95   2 Si  14      21.368200   19.214400    4.899240       4.0000     28.0855
   96   2 Si  14       5.195540   15.280000    7.422050       4.0000     28.0855
   97   2 Si  14      23.144500    3.064830   13.185700       4.0000     28.0855
   98   2 Si  14      21.368200    4.819940   19.294000       4.0000     28.0855
   99   2 Si  14      23.144500    3.043740   17.514400       4.0000     28.0855
  100   2 Si  14      21.389400    4.819850   23.622700       4.0000     28.0855
  101   2 Si  14       0.889210   23.144700   15.360700       4.0000     28.0855
  102   2 Si  14       1.288340    6.998060   21.469100       4.0000     28.0855
  103   2 Si  14       0.889710    7.396660   15.339500       4.0000     28.0855
  104   2 Si  14      17.036400    6.998080   21.447900       4.0000     28.0855
  105   2 Si  14      15.281200   17.434400   19.692900       4.0000     28.0855
  106   2 Si  14       6.994010   21.374700   17.118500       4.0000     28.0855
  107   2 Si  14       4.819810   21.389500   23.623100       4.0000     28.0855
  108   2 Si  14       3.042860   23.145000   17.514700       4.0000     28.0855
  109   2 Si  14       4.818360   21.368900   19.295600       4.0000     28.0855
  110   2 Si  14       3.063990   23.145200   13.185400       4.0000     28.0855
  111   2 Si  14       6.997860   17.036300   21.448700       4.0000     28.0855
  112   2 Si  14       7.396990    0.890810   15.339500       4.0000     28.0855
  113   2 Si  14       6.998250    1.288640   21.469000       4.0000     28.0855
  114   2 Si  14      23.144300    0.890130   15.360600       4.0000     28.0855
  115   2 Si  14      21.368000   23.543400   13.584300       4.0000     28.0855
  116   2 Si  14      17.435000    3.043650   23.224100       4.0000     28.0855
  117   2 Si  14      21.389100   11.326700   17.115700       4.0000     28.0855
  118   2 Si  14       0.889600   15.281100   23.224200       4.0000     28.0855
  119   2 Si  14      21.389100   19.214300   13.584200       4.0000     28.0855
  120   2 Si  14      13.106600   15.259400   19.692100       4.0000     28.0855
  121   2 Si  14      19.612800   15.259600   13.185300       4.0000     28.0855
  122   2 Si  14      21.389300   13.504800   19.293900       4.0000     28.0855
  123   2 Si  14      19.613000   15.281000   17.514300       4.0000     28.0855
  124   2 Si  14      21.368100   13.504900   23.622700       4.0000     28.0855
  125   2 Si  14      17.434600   19.612700   15.359600       4.0000     28.0855
  126   2 Si  14      17.036100   11.326600   21.468400       4.0000     28.0855
  127   2 Si  14      17.433100   10.927700   15.339400       4.0000     28.0855
  128   2 Si  14       1.288290   11.326600   21.447900       4.0000     28.0855
  129   2 Si  14       3.064580   13.106100   23.224200       4.0000     28.0855
  130   2 Si  14       6.984220    9.139320   13.586100       4.0000     28.0855
  131   2 Si  14       3.043500    0.890280   19.692900       4.0000     28.0855
  132   2 Si  14      23.542600   21.368300   13.584400       4.0000     28.0855
  133   2 Si  14       3.043340   17.434800   23.224400       4.0000     28.0855
  134   2 Si  14      11.323100   21.386100   17.129800       4.0000     28.0855
  135   2 Si  14       1.288390    9.151750   23.622800       4.0000     28.0855
  136   2 Si  14       3.063380    7.396170   17.515400       4.0000     28.0855
  137   2 Si  14       1.288060    9.172960   19.294200       4.0000     28.0855
  138   2 Si  14       3.043360    7.396120   13.185800       4.0000     28.0855
  139   2 Si  14      23.543000   13.504900   21.447800       4.0000     28.0855
  140   2 Si  14      23.144500    5.218560   15.339500       4.0000     28.0855
  141   2 Si  14      23.543000    4.819890   21.469000       4.0000     28.0855
  142   2 Si  14       7.397050    5.217980   15.361200       4.0000     28.0855
  143   2 Si  14       9.150920   19.244700   17.151700       4.0000     28.0855
  144   2 Si  14      17.434400   15.280200   19.692300       4.0000     28.0855
  145   2 Si  14       7.396680    3.044330   13.185600       4.0000     28.0855
  146   2 Si  14       9.173030    1.288840   19.294400       4.0000     28.0855
  147   2 Si  14       7.396640    3.064980   17.514600       4.0000     28.0855
  148   2 Si  14       9.151930    1.288460   23.622800       4.0000     28.0855
  149   2 Si  14       5.213750    7.390690   15.363700       4.0000     28.0855
  150   2 Si  14       4.819740   23.543700   21.469500       4.0000     28.0855
  151   2 Si  14       5.217400   23.146400   15.339100       4.0000     28.0855
  152   2 Si  14      13.505000   23.543500   21.448300       4.0000     28.0855
  153   2 Si  14      15.281300    0.889990   23.224200       4.0000     28.0855
  154   2 Si  14      19.214400   21.389500   13.584300       4.0000     28.0855
  155   2 Si  14      15.259000   13.103200   19.688800       4.0000     28.0855
  156   2 Si  14      11.325500    9.148660   13.585400       4.0000     28.0855
  157   2 Si  14      15.260100    5.218550   23.224100       4.0000     28.0855
  158   2 Si  14      23.542900    9.172920   17.115800       4.0000     28.0855
  159   2 Si  14      13.504900   21.368300   23.622800       4.0000     28.0855
  160   2 Si  14      15.283000   19.613600   17.515800       4.0000     28.0855
  161   2 Si  14      13.506700   21.389700   19.295800       4.0000     28.0855
  162   2 Si  14      15.259400   19.607800   13.180900       4.0000     28.0855
  163   2 Si  14      11.326900    1.288480   21.448000       4.0000     28.0855
  164   2 Si  14      10.922600   17.487100   15.395500       4.0000     28.0855
  165   2 Si  14      11.327400   17.035900   21.469300       4.0000     28.0855
  166   2 Si  14      19.613100   17.434600   15.360400       4.0000     28.0855
  167   2 Si  14      21.368000    6.998210   17.115700       4.0000     28.0855
  168   2 Si  14       5.218460    3.064880   19.692700       4.0000     28.0855
  169   2 Si  14       9.152550   17.033000   19.296500       4.0000     28.0855
  170   2 Si  14      10.928700   15.265200   17.515800       4.0000     28.0855
  171   2 Si  14       9.173160   17.036300   23.623000       4.0000     28.0855
  172   2 Si  14      13.106400   10.917000   15.367300       4.0000     28.0855
  173   2 Si  14      13.505100   19.214500   21.469100       4.0000     28.0855
  174   2 Si  14      13.110900   19.618600   15.341400       4.0000     28.0855
  175   2 Si  14       4.819760   19.214400   21.448500       4.0000     28.0855
  176   2 Si  14       3.064570    5.218340   19.692900       4.0000     28.0855
  177   2 Si  14      19.214200    9.151950   17.115600       4.0000     28.0855
  178   2 Si  14      17.036300    9.173060   23.622500       4.0000     28.0855
  179   2 Si  14      15.252500   10.916600   17.509400       4.0000     28.0855
  180   2 Si  14      17.037000    9.151490   19.294400       4.0000     28.0855
  181   2 Si  14      15.278900   10.928000   13.187500       4.0000     28.0855
  182   2 Si  14      19.214500    4.819880   21.447800       4.0000     28.0855
  183   2 Si  14      19.612600   13.106000   15.339300       4.0000     28.0855
  184   2 Si  14      19.214300   13.504800   21.468900       4.0000     28.0855
  185   2 Si  14      10.871100   13.041200   15.367700       4.0000     28.0855
  186   2 Si  14       9.129960   11.287100   13.608700       4.0000     28.0855
  187   2 Si  14       5.218310   15.259900   23.224500       4.0000     28.0855
  188   2 Si  14       9.173500   23.544000   17.116100       4.0000     28.0855
  189   2 Si  14      13.106400    3.064840   23.224200       4.0000     28.0855
  190   2 Si  14       9.162740    6.990570   13.583100       4.0000     28.0855
  191   2 Si  14       0.889560    3.043710   19.692700       4.0000     28.0855
  192   3 O    8      24.353700    3.558640   12.216700       6.0000     15.9994
  193   3 O    8      20.874300    3.558720    0.079480       6.0000     15.9994
  194   3 O    8      20.874200    2.549560    6.187720       6.0000     15.9994
  195   3 O    8      18.324800    8.657750    2.628910       6.0000     15.9994
  196   3 O    8      15.775100    0.000040    8.737250       6.0000     15.9994
  197   3 O    8      18.324800   21.883500    3.638100       6.0000     15.9994
  198   3 O    8       2.549560   -0.000090    9.746550       6.0000     15.9994
  199   3 O    8       6.108240   20.874300    2.629010       6.0000     15.9994
  200   3 O    8       3.557110   12.220900    8.731230       6.0000     15.9994
  201   3 O    8      -0.000110    9.666960    2.628890       6.0000     15.9994
  202   3 O    8       3.558810    6.108260    9.746510       6.0000     15.9994
  203   3 O    8      12.216500    8.658150    3.639560       6.0000     15.9994
  204   3 O    8       2.549600   20.874300    6.187760       6.0000     15.9994
  205   3 O    8       3.558730   20.874300    0.079500       6.0000     15.9994
  206   3 O    8       0.000000    2.549470    9.746490       6.0000     15.9994
  207   3 O    8      21.883500   18.324700    3.638210       6.0000     15.9994
  208   3 O    8       0.000270   15.775000    8.737230       6.0000     15.9994
  209   3 O    8       8.657780   18.325000    2.628860       6.0000     15.9994
  210   3 O    8       9.667030    6.108360    3.638450       6.0000     15.9994
  211   3 O    8      18.324700    2.549560    8.737210       6.0000     15.9994
  212   3 O    8      21.883500   14.766000    0.079480       6.0000     15.9994
  213   3 O    8      21.883500   15.775200    6.187670       6.0000     15.9994
  214   3 O    8       2.549790   18.324800    8.737540       6.0000     15.9994
  215   3 O    8       0.000040   20.874300    3.638230       6.0000     15.9994
  216   3 O    8      15.785900   18.338000    9.740250       6.0000     15.9994
  217   3 O    8      14.765800    6.108330    8.737150       6.0000     15.9994
  218   3 O    8       6.108250    9.666840    3.638150       6.0000     15.9994
  219   3 O    8       2.549540    9.667020    0.079490       6.0000     15.9994
  220   3 O    8       3.558080    9.666170    6.187050       6.0000     15.9994
  221   3 O    8       6.108280    3.558710    9.746380       6.0000     15.9994
  222   3 O    8       8.658850   12.215500    3.637800       6.0000     15.9994
  223   3 O    8       6.109720   14.763300    8.656490       6.0000     15.9994
  224   3 O    8      21.883500   12.216500    2.628990       6.0000     15.9994
  225   3 O    8      18.325000   15.775400    9.746440       6.0000     15.9994
  226   3 O    8      20.874300    0.000040    3.638200       6.0000     15.9994
  227   3 O    8      20.874300    6.108230    2.628990       6.0000     15.9994
  228   3 O    8      12.216400    3.558570    8.737340       6.0000     15.9994
  229   3 O    8       9.667010    2.549540    0.079520       6.0000     15.9994
  230   3 O    8       9.666980    3.558700    6.187760       6.0000     15.9994
  231   3 O    8      12.216500   21.883500    2.628990       6.0000     15.9994
  232   3 O    8      14.766000   21.883500    0.079480       6.0000     15.9994
  233   3 O    8      15.775100   21.883900    6.187410       6.0000     15.9994
  234   3 O    8       9.666980    0.000000    2.629040       6.0000     15.9994
  235   3 O    8      12.467300   14.757400    9.478340       6.0000     15.9994
  236   3 O    8       8.657730   15.775300    0.079460       6.0000     15.9994
  237   3 O    8       8.648590   14.768100    6.190370       6.0000     15.9994
  238   3 O    8      14.763300   12.216900    9.745590       6.0000     15.9994
  239   3 O    8      14.768700    8.655460    6.184640       6.0000     15.9994
  240   3 O    8      15.775200    8.657720    0.079510       6.0000     15.9994
  241   3 O    8      19.079200    4.246460    1.941270       6.0000     15.9994
  242   3 O    8      20.186600    0.754410    8.049570       6.0000     15.9994
  243   3 O    8      19.079200    1.861740    4.326010       6.0000     15.9994
  244   3 O    8      22.571300    0.754400   10.434300       6.0000     15.9994
  245   3 O    8      16.463000    6.862570    1.941060       6.0000     15.9994
  246   3 O    8      17.570700   22.571800    8.049390       6.0000     15.9994
  247   3 O    8      16.463000   23.678700    4.325910       6.0000     15.9994
  248   3 O    8       0.754460   22.571400   10.434100       6.0000     15.9994
  249   3 O    8       1.861660    1.861780   11.541600       6.0000     15.9994
  250   3 O    8       7.970030   20.186600    0.833840       6.0000     15.9994
  251   3 O    8       4.234880   14.074200    6.872430       6.0000     15.9994
  252   3 O    8      22.571200   10.354700    0.833860       6.0000     15.9994
  253   3 O    8       4.246370    4.246410   11.541600       6.0000     15.9994
  254   3 O    8      10.355700    7.970650    5.433910       6.0000     15.9994
  255   3 O    8       1.861600   19.079200    4.325900       6.0000     15.9994
  256   3 O    8       0.754480   20.186700    8.049440       6.0000     15.9994
  257   3 O    8       4.246430   19.079200    1.941270       6.0000     15.9994
  258   3 O    8      23.678600   16.463000    4.326040       6.0000     15.9994
  259   3 O    8      22.571200   17.570400    8.049390       6.0000     15.9994
  260   3 O    8       6.862700   16.463000    1.941170       6.0000     15.9994
  261   3 O    8      16.463000    1.861750    6.942180       6.0000     15.9994
  262   3 O    8      23.678600   14.078300    1.941280       6.0000     15.9994
  263   3 O    8      20.186700   17.570300   10.434200       6.0000     15.9994
  264   3 O    8       1.861670   11.462200    1.941100       6.0000     15.9994
[...]
 flops   768 x   160 x   148         803104358400       0.0%    100.0%      0.0%
 flops   788 x   160 x   148         824018534400       0.0%    100.0%      0.0%
 flops   788 x   148 x   160         824018534400       0.0%    100.0%      0.0%
 flops  3800 x   148 x   764         876534144000       0.0%    100.0%      0.0%
 flops  3813 x   148 x   764         879532813440       0.0%    100.0%      0.0%
 flops  3800 x   128 x   751        1117776384000       0.0%    100.0%      0.0%
 flops  3813 x   128 x   751        1121600355840       0.0%    100.0%      0.0%
 flops  3800 x   128 x   767        1141590528000       0.0%    100.0%      0.0%
 flops  3813 x   128 x   767        1145495969280       0.0%    100.0%      0.0%
 flops    13 x    13 x   128        1179606112256       0.0%    100.0%      0.0%
 flops  3800 x   148 x   751        1292428944000       0.0%    100.0%      0.0%
 flops  3813 x   148 x   751        1296850411440       0.0%    100.0%      0.0%
 flops  3800 x   148 x   767        1319964048000       0.0%    100.0%      0.0%
 flops  3813 x   148 x   767        1324479714480       0.0%    100.0%      0.0%
 flops    13 x    13 x   148        1363919567296       0.0%    100.0%      0.0%
 flops  3800 x   160 x   128        2202730496000       0.0%    100.0%      0.0%
 flops  3800 x   128 x   160        2202730496000       0.0%    100.0%      0.0%
 flops  3813 x   128 x   160        2210266152960       0.0%    100.0%      0.0%
 flops  3813 x   160 x   128        2210266152960       0.0%    100.0%      0.0%
 flops  3800 x   160 x   148        2546907136000       0.0%    100.0%      0.0%
 flops  3800 x   148 x   160        2546907136000       0.0%    100.0%      0.0%
 flops  3813 x   148 x   160        2555620239360       0.0%    100.0%      0.0%
 flops  3813 x   160 x   148        2555620239360       0.0%    100.0%      0.0%
 flops   768 x   160 x   764        3803279523840       0.0%    100.0%      0.0%
 flops   788 x   160 x   764        3902323261440       0.0%    100.0%      0.0%
 flops   768 x   160 x   751        5607846051840       0.0%    100.0%      0.0%
 flops   768 x   160 x   767        5727320801280       0.0%    100.0%      0.0%
 flops   788 x   160 x   751        5753883709440       0.0%    100.0%      0.0%
 flops   788 x   160 x   767        5876469780480       0.0%    100.0%      0.0%
 flops   768 x   160 x   160        6945767424000       0.0%    100.0%      0.0%
 flops   788 x   160 x   160        7126646784000       0.0%    100.0%      0.0%
 flops  3800 x   160 x   764        7580835840000       0.0%    100.0%      0.0%
 flops  3813 x   160 x   764        7606770278400       0.0%    100.0%      0.0%
 flops  3800 x   160 x   751       11177763840000       0.0%    100.0%      0.0%
 flops  3813 x   160 x   751       11216003558400       0.0%    100.0%      0.0%
 flops  3800 x   160 x   767       11415905280000       0.0%    100.0%      0.0%
 flops  3813 x   160 x   767       11454959692800       0.0%    100.0%      0.0%
 flops    13 x    13 x   160       11796061122560       0.0%    100.0%      0.0%
 flops  3800 x   160 x   160       22027304960000       0.0%    100.0%      0.0%
 flops  3813 x   160 x   160       22102661529600       0.0%    100.0%      0.0%
 flops    13 x    32 x    13       42961104236544       0.0%    100.0%      0.0%
 flops inhomo. stacks              28120966048128     100.0%      0.0%      0.0%
 flops total                       284.723341E+12       9.9%     90.1%      0.0%
 flops max/rank                     14.678546E+12       9.9%     90.1%      0.0%
 matmuls inhomo. stacks                     71040     100.0%      0.0%      0.0%
 matmuls total                         4602983048       0.0%    100.0%      0.0%
 number of processed stacks               6777398       1.0%     99.0%      0.0%
 average stack size                                     1.0     686.4       0.0
 marketing flops                   455.321965E+12
 -------------------------------------------------------------------------------
 # multiplications                           7587
 max memory usage/rank             968.601600E+06
 # max total images/rank                        5
 # max 3D layers                                1
 # MPI messages exchanged                 2124360
 MPI messages size (bytes):
  total size                         7.050609E+12
  min size                           0.000000E+00
  max size                          23.549088E+06
  average size                       3.318933E+06
 MPI breakdown and total messages size (bytes):
             size <=      128                 740                        0
       128 < size <=     8192                   0                        0
      8192 < size <=    32768                   2                    65536
     32768 < size <=   131072                4547                594352384
    131072 < size <=  4194304             1291557            1017431916096
   4194304 < size <= 16777216              735714            3903119949312
  16777216 < size                           91800            2128209277680
 -------------------------------------------------------------------------------

 *** WARNING in dbcsr_mm.F:294 :: Using a non-square number of MPI ranks ***
 *** might lead to poor performance. Used ranks: 20 Suggested: 16 36     ***

 -------------------------------------------------------------------------------
 -                                                                             -
 -                      DBCSR MESSAGE PASSING PERFORMANCE                      -
 -                                                                             -
 -------------------------------------------------------------------------------
 ROUTINE             CALLS      AVE VOLUME [Bytes]
 MP_Bcast              124                     12.
 MP_Allreduce        39177                    167.
 MP_Alltoall         27218                 316078.
 MP_ISend           280674                1354258.
 MP_IRecv           281184                1339411.
 -------------------------------------------------------------------------------

 -------------------------------------------------------------------------------
 -                                                                             -
 -                                GRID STATISTICS                              -
 -                                                                             -
 -------------------------------------------------------------------------------
 LP    KERNEL             BACKEND                              COUNT     PERCENT
 4     collocate ortho    REF                              140154410      63.15%
 4     integrate ortho    REF                               70077205      31.58%
 3     collocate ortho    REF                                6226330       2.81%
 3     integrate ortho    REF                                3113165       1.40%
 5     collocate ortho    REF                                 829840       0.37%
 2     collocate ortho    REF                                 699798       0.32%
 5     integrate ortho    REF                                 414920       0.19%
 2     integrate ortho    REF                                 349899       0.16%
 0     collocate general  REF                                  23680       0.01%
 6     collocate ortho    REF                                  18216       0.01%
 0     integrate general  REF                                  11840       0.01%
 6     integrate ortho    REF                                   9108       0.00%
 -------------------------------------------------------------------------------

 MEMORY| Estimated peak process memory [MiB]                                 925

 -------------------------------------------------------------------------------
 ----                             MULTIGRID INFO                            ----
 -------------------------------------------------------------------------------
 count for grid        1:        1286885          cutoff [a.u.]          180.00
 count for grid        2:         497834          cutoff [a.u.]           60.00
 count for grid        3:         267014          cutoff [a.u.]           20.00
 count for grid        4:          22930          cutoff [a.u.]            6.67
 count for grid        5:              0          cutoff [a.u.]            2.22
 total gridlevel count  :        2074663

 -------------------------------------------------------------------------------
 -                                                                             -
 -                         MESSAGE PASSING PERFORMANCE                         -
 -                                                                             -
 -------------------------------------------------------------------------------

 ROUTINE             CALLS      AVE VOLUME [Bytes]
 MP_Group                5
 MP_Bcast            33767                 252307.
 MP_Allreduce        83435                   1526.
 MP_Sync               511
 MP_Alltoall          7857               41893591.
 MP_ISendRecv        43263                 151669.
 MP_Wait             84330
 MP_ISend            36504                1031808.
 MP_IRecv            36504                1029356.
 MP_Recv              1196                1948928.
 -------------------------------------------------------------------------------


 -------------------------------------------------------------------------------
 -                                                                             -
 -                           R E F E R E N C E S                               -
 -                                                                             -
 -------------------------------------------------------------------------------
 
 CP2K version 9.1, the CP2K developers group (2021).
 CP2K is freely available from https://www.cp2k.org/ .

 Kuehne,Thomas D.; Iannuzzi,Marcella; Del Ben,Mauro;
 Rybkin,Vladimir V.; Seewald,Patrick; Stein,Frederick; Laino,Teodoro;
 Khaliullin,Rustam Z.; Schuett,Ole; Schiffmann,Florian; Golze,Dorothea;
 Wilhelm,Jan; Chulkov,Sergey; Bani-Hashemian,Mohammad Hossein;
 Weber,Valery; Borstnik,Urban; Taillefumier,Mathieu;
 Jakobovits,Alice Shoshana; Lazzaro,Alfio; Pabst,Hans; Mueller,Tiziano;
 Schade,Robert; Guidon,Manuel; Andermatt,Samuel; Holmberg,Nico;
 Schenter,Gregory K.; Hehn,Anna; Bussy,Augustin; Belleflamme,Fabian;
 Tabacchi,Gloria; Gloess,Andreas; Lass,Michael; Bethune,Iain;
 Mundy,Christopher J.; Plessl,Christian; Watkins,Matt;
 VandeVondele,Joost; Krack,Matthias; Hutter,Juerg. 
 The Journal of Chemical Physics, 152 (19), (2020). 
 CP2K: An electronic structure and molecular dynamics software package -
 Quickstep: Efficient and accurate electronic structure calculations.
 https://doi.org/10.1063/5.0007045

 Goerigk, Lars; Hansen, Andreas; Bauer, Christoph; Ehrlich, Stephan;
 Najibi, Asim; Grimme, Stefan. , 19 (48), (2017). 
 A look at the density functional theory zoo with the advanced GMTKN55 database
 for general main group thermochemistry, kinetics and noncovalent interactions.
 https://doi.org/10.1039/C7CP04913G

 Schuett, Ole; Messmer, Peter; Hutter, Juerg; VandeVondele, Joost. 
 Electronic Structure Calculations on Graphics Processing Units, John
 Wiley & Sons, Ltd, 173-190 (2016). 
 GPU-Accelerated Sparse Matrix-Matrix Multiplication for
 Linear Scaling Density Functional Theory.
 https://doi.org/10.1002/9781118670712.ch8

 Heinecke, A; Henry, G; Hutchinson, M; Pabst, H. 
 Proceedings of Intl. Supercomputing Conference, 981-991 (2016). 
 LIBXSMM: Accelerating Small Matrix Multiplications
 by Runtime Code Generation.
 https://doi.org/10.1109/SC.2016.83

 Borstnik, U; VandeVondele, J; Weber, V; Hutter, J. 
 PARALLEL COMPUTING, 40 (5-6), 47-58 (2014). 
 Sparse matrix multiplication: The distributed block-compressed sparse
 row library.
 https://doi.org/10.1016/j.parco.2014.03.012

 Hutter, J; Iannuzzi, M; Schiffmann, F; VandeVondele, J. 
 WIREs Comput Mol Sci., 4 (1), 15-25 (2014). 
 CP2K: atomistic simulations of condensed matter systems.
 https://doi.org/10.1002/wcms.1159

 Grimme, S; Ehrlich, S; Goerigk, L. 
 JOURNAL OF COMPUTATIONAL CHEMISTRY, 32, 1456 (2011). 
 Effect of the damping function in dispersion corrected density functional theory.
 https://doi.org/10.1002/jcc.21759

 Grimme, S; Antony, J; Ehrlich, S; Krieg, H. 
 JOURNAL OF CHEMICAL PHYSICS, 132 (15), 154104 (2010). 
 A consistent and accurate ab initio parametrization of density
 functional dispersion correction (DFT-D) for the 94 elements H-Pu.
 https://doi.org/10.1063/1.3382344

 VandeVondele, J; Hutter, J. 
 JOURNAL OF CHEMICAL PHYSICS, 127 (11), 114105 (2007). 
 Gaussian basis sets for accurate calculations on molecular systems in
 gas and condensed phases.
 https://doi.org/10.1063/1.2770708

 Krack, M. 
 THEORETICAL CHEMISTRY ACCOUNTS, 114 (1-3), 145-152 (2005). 
 Pseudopotentials for H to Kr optimized for gradient-corrected
 exchange-correlation functionals.
 https://doi.org/10.1007/s00214-005-0655-y

 VandeVondele, J; Krack, M; Mohamed, F; Parrinello, M; Chassaing, T;
 Hutter, J. COMPUTER PHYSICS COMMUNICATIONS, 167 (2), 103-128 (2005). 
 QUICKSTEP: Fast and accurate density functional calculations using a
 mixed Gaussian and plane waves approach.
 https://doi.org/10.1016/j.cpc.2004.12.014

 Frigo, M; Johnson, SG. 
 PROCEEDINGS OF THE IEEE, 93 (2), 216-231 (2005). 
 The design and implementation of FFTW3.
 https://doi.org/10.1109/JPROC.2004.840301

 VandeVondele, J; Hutter, J. 
 JOURNAL OF CHEMICAL PHYSICS, 118 (10), 4365-4369 (2003). 
 An efficient orbital transformation method for electronic structure
 calculations.
 https://doi.org/10.1063/1.1543154

 Hartwigsen, C; Goedecker, S; Hutter, J. 
 PHYSICAL REVIEW B, 58 (7), 3641-3662 (1998). 
 Relativistic separable dual-space Gaussian pseudopotentials from H to Rn.
 https://doi.org/10.1103/PhysRevB.58.3641

 Lippert, G; Hutter, J; Parrinello, M. 
 MOLECULAR PHYSICS, 92 (3), 477-487 (1997). 
 A hybrid Gaussian and plane wave density functional scheme.
 https://doi.org/10.1080/002689797170220

 Perdew, JP; Burke, K; Ernzerhof, M. 
 PHYSICAL REVIEW LETTERS, 77 (18), 3865-3868 (1996). 
 Generalized gradient approximation made simple.
 https://doi.org/10.1103/PhysRevLett.77.3865

 Goedecker, S; Teter, M; Hutter, J. 
 PHYSICAL REVIEW B, 54 (3), 1703-1710 (1996). 
 Separable dual-space Gaussian pseudopotentials.
 https://doi.org/10.1103/PhysRevB.54.1703


 -------------------------------------------------------------------------------
 -                                                                             -
 -                                T I M I N G                                  -
 -                                                                             -
 -------------------------------------------------------------------------------
 SUBROUTINE                       CALLS  ASD         SELF TIME        TOTAL TIME
                                MAXIMUM       AVERAGE  MAXIMUM  AVERAGE  MAXIMUM
 CP2K                                 1  1.0    0.029    0.038 4929.313 4929.327
 qs_energies                          1  2.0    0.001    0.002 4927.332 4927.345
 scf_env_do_scf                       1  3.0    0.001    0.001 4921.083 4921.097
 scf_env_do_scf_inner_loop          505  4.0    0.015    0.058 4844.117 4844.353
 qs_ks_update_qs_env                507  5.0    0.005    0.005 1924.008 1925.108
 rebuild_ks_matrix                  505  6.0    0.003    0.004 1922.063 1923.170
 qs_ks_build_kohn_sham_matrix       505  7.0    0.092    0.103 1922.059 1923.166
 qs_scf_new_mos                     505  5.0    0.005    0.006 1696.225 1698.663
 qs_scf_loop_do_ot                  505  6.0    0.005    0.006 1696.221 1698.660
 dbcsr_multiply_generic            7587  9.9    0.628    0.669 1608.124 1609.853
 ot_scf_mini                        505  7.0    0.026    0.035 1589.414 1590.108
 multiply_cannon                   7587 10.9    0.889    1.026 1384.970 1391.539
 multiply_cannon_loop              7587 11.9    1.777    2.309 1349.791 1360.114
 qs_rho_update_rho                  506  5.0    0.003    0.003 1231.905 1232.960
 calculate_rho_elec                 506  6.0    2.592    2.719 1231.902 1232.957
 qs_vxc_create                      505  8.0    0.012    0.015  972.371  972.762
 multiply_cannon_multrec          75870 12.9  899.942  926.270  900.076  926.381
 pw_transfer                       8092  9.4    0.803    0.966  893.550  909.929
 fft_wrap_pw1pw2                   7082 10.5    0.113    0.134  879.521  895.804
 grid_collocate_task_list           506  7.0  864.122  881.328  864.122  881.328
 fft_wrap_pw1pw2_180               4046 11.8   74.050   76.249  849.389  863.682
 ot_mini                            505  8.0    0.004    0.007  858.349  860.472
 sum_up_and_integrate               253  8.0    1.648    1.735  742.507  742.624
 integrate_v_rspace                 253  9.0    0.012    0.015  740.858  741.006
 xc_rho_set_and_dset_create         505 10.0    5.409    5.702  705.451  738.180
 fft3d_ps                          7082 12.5  350.866  364.146  663.706  680.146
 mp_waitall_1                    533394 13.8  506.467  610.016  506.467  610.016
 xc_vxc_pw_create                   253  9.0   10.146   13.782  605.072  605.462
 grid_integrate_task_list           253 10.0  596.213  599.943  596.213  599.943
 multiply_cannon_metrocomm3       75870 12.9    0.714    1.013  445.647  560.418
 ot_new_cg_direction                253  9.0    0.007    0.009  463.746  463.763
 apply_preconditioner_dbcsr         255 10.0    0.001    0.001  461.738  462.993
 apply_all                          255 11.0    0.464    0.502  461.737  462.992
 qs_ot_get_derivative               253  9.0    0.004    0.005  392.000  393.600
 xc_exc_calc                        252  9.0    1.270    1.344  367.287  367.380
 density_rs2pw                      506  7.0    0.049    0.055  353.958  363.983
 xc_functional_eval                 505 11.0    0.007    0.011  318.826  351.240
 pbe_lda_eval                       505 12.0  318.819  351.232  318.819  351.232
 qs_ot_get_p                        507  8.0    0.005    0.005  328.150  330.501
 qs_ot_get_derivative_diag          249 10.0    0.011    0.015  271.814  273.539
 x_to_yz                           3539 14.3  150.193  154.208  208.170  229.313
 qs_ot_p2m_diag                     500  9.0    6.282    6.602  209.608  210.189
 qs_ot_get_orbitals                 505  8.0    0.004    0.007  203.815  204.229
 rs_pw_transfer                    3798  9.0    0.074    0.085  182.744  192.434
 cp_fm_syevd                        506 11.0    0.008    0.009  190.329  190.484
 cp_fm_syevd_base                   506 12.0  190.236  190.377  190.236  190.377
 make_m2s                         15174 10.9    0.558    0.748  164.360  168.989
 cp_dbcsr_syevd                     504 10.0    0.043    0.079  161.175  161.201
 potential_pw2rs                    253 10.0    0.119    0.148  135.759  135.896
 mp_alltoall_z22v                  7082 14.5  101.706  127.048  101.706  127.048
 make_images                      15174 11.9    3.237    3.344  114.175  120.062
 yz_to_x                           3543 12.6   60.682   62.686  104.412  116.790
 calculate_dm_sparse                506  7.0    0.004    0.007  107.033  108.883
 -------------------------------------------------------------------------------

 The number of warnings for this run is : 2
 
 -------------------------------------------------------------------------------
  **** **** ******  **  PROGRAM ENDED AT                 2022-10-18 12:38:09.996
 ***** ** ***  *** **   PROGRAM RAN ON             node1999.palmetto.clemson.edu
 **    ****   ******    PROGRAM RAN BY                                   xiutinc
 ***** **    ** ** **   PROGRAM PROCESS ID                               3627026
  **** **  *******  **  PROGRAM STOPPED IN   /scratch1/xiutinc/CP2K-222654.pbs02
