ITEM: TIMESTEP
1500000
ITEM: NUMBER OF ATOMS
4761
ITEM: BOX BOUNDS pp pp pp
0.0000000000000000e+00 2.4433001000000001e+01
0.0000000000000000e+00 2.4433001000000001e+01
0.0000000000000000e+00 8.6882897779454566e+01
ITEM: ATOMS id mol type q x y z 
1 1 1 -0.834 10.5176 11.1979 0.792854 
2 1 1 -0.834 11.0113 4.01361 82.1201 
3 1 1 -0.834 19.6896 2.69521 78.4844 
4 1 1 -0.834 16.6958 18.1696 68.5558 
5 1 1 -0.834 14.6854 18.0235 80.2923 
6 1 1 -0.834 7.68156 0.831454 72.2231 
7 1 1 -0.834 14.8781 14.4539 78.8472 
8 1 1 -0.834 9.01049 9.96746 85.7731 
9 1 1 -0.834 13.8915 13.4658 4.80504 
10 1 1 -0.834 24.3498 2.81094 70.2426 
11 1 1 -0.834 8.37923 14.1739 43.8233 
12 1 1 -0.834 14.0865 24.3367 67.785 
13 1 1 -0.834 5.39855 20.4714 66.7826 
14 1 1 -0.834 7.88411 6.20472 78.5743 
15 1 1 -0.834 19.2628 13.8668 32.8304 
16 1 1 -0.834 6.61169 11.3582 71.6828 
17 1 1 -0.834 3.41921 17.9601 17.5121 
18 1 1 -0.834 22.9669 24.135 45.5873 
19 1 1 -0.834 17.8351 3.53541 18.4056 
20 1 1 -0.834 15.9443 12.3419 66.387 
21 1 1 -0.834 18.7896 0.175509 2.47959 
22 1 1 -0.834 21.2983 13.2777 70.1825 
23 1 1 -0.834 8.36759 7.0632 56.772 
24 1 1 -0.834 19.1566 24.0614 69.8183 
25 1 1 -0.834 11.8181 11.3109 67.1424 
26 1 1 -0.834 10.8799 4.53762 25.3482 
27 1 1 -0.834 14.1332 1.52436 65.1225 
28 1 1 -0.834 13.473 10.3481 5.46249 
29 1 1 -0.834 23.6794 22.1118 65.4589 
30 1 1 -0.834 2.33982 3.05567 61.301 
31 1 1 -0.834 9.03555 2.35181 66.7746 
32 1 1 -0.834 3.33779 23.1567 33.7905 
33 1 1 -0.834 19.0937 22.1061 41.825 
34 1 1 -0.834 9.10083 14.7359 63.978 
35 1 1 -0.834 4.71052 20.9904 69.4484 
36 1 1 -0.834 0.265934 21.2713 53.011 
37 1 1 -0.834 11.0368 13.4735 43.2884 
38 1 1 -0.834 7.16949 2.03582 64.5551 
39 1 1 -0.834 14.3023 10.1352 60.3802 
40 1 1 -0.834 22.3878 12.5732 65.9747 
41 1 1 -0.834 15.7749 13.0345 58.442 
42 1 1 -0.834 20.15 2.98816 43.6587 
43 1 1 -0.834 18.1502 19.6357 76.4853 
44 1 1 -0.834 19.3855 23.1704 78.6359 
45 1 1 -0.834 3.13976 0.542476 80.295 
46 1 1 -0.834 9.01111 0.80286 44.0984 
47 1 1 -0.834 4.11261 3.7358 37.899 
48 1 1 -0.834 8.62388 19.4518 43.0657 
49 1 1 -0.834 16.6178 8.82058 38.661 
50 1 1 -0.834 6.43833 14.7222 62.3725 
51 1 1 -0.834 7.18505 5.64399 46.2648 
52 1 1 -0.834 22.0413 11.1302 53.3427 
53 1 1 -0.834 23.7222 18.068 1.67711 
54 1 1 -0.834 19.2314 4.91764 73.0436 
55 1 1 -0.834 22.3975 1.70425 48.9407 
56 1 1 -0.834 15.128 7.22333 81.8198 
57 1 1 -0.834 23.4851 15.7875 59.3582 
58 1 1 -0.834 19.3721 20.1879 6.48014 
59 1 1 -0.834 3.99778 5.18379 74.1917 
60 1 1 -0.834 8.92207 23.6791 47.711 
61 1 1 -0.834 18.1645 4.0054 54.008 
62 1 1 -0.834 8.32632 18.6423 59.5431 
63 1 1 -0.834 8.96108 22.3007 19.0771 
64 1 1 -0.834 1.33444 10.902 62.2429 
65 1 1 -0.834 11.0848 19.5993 10.6482 
66 1 1 -0.834 16.029 7.0512 21.5253 
67 1 1 -0.834 1.69088 14.6455 64.0367 
68 1 1 -0.834 24.0071 16.5853 20.3574 
69 1 1 -0.834 14.9441 23.68 21.3922 
70 1 1 -0.834 22.1312 16.1813 51.421 
71 1 1 -0.834 20.7899 21.9445 8.03343 
72 1 1 -0.834 10.3793 22.6779 73.9606 
73 1 1 -0.834 23.6635 23.5441 24.9471 
74 1 1 -0.834 23.5747 14.8536 47.4106 
75 1 1 -0.834 2.32957 6.98237 53.2965 
76 1 1 -0.834 9.91023 0.881508 79.4643 
77 1 1 -0.834 0.74072 13.025 24.1258 
78 1 1 -0.834 22.5022 2.96935 53.0839 
79 1 1 -0.834 17.2384 11.5112 39.0045 
80 1 1 -0.834 18.598 19.6929 46.4541 
81 1 1 -0.834 3.56982 14.7271 82.8313 
82 1 1 -0.834 0.975988 20.4108 69.3943 
83 1 1 -0.834 9.42985 17.9489 49.1819 
84 1 1 -0.834 7.72405 2.61338 56.5986 
85 1 1 -0.834 23.6923 10.2203 37.3863 
86 1 1 -0.834 21.5092 10.6246 58.2259 
87 1 1 -0.834 11.1827 1.46807 76.2719 
88 1 1 -0.834 6.02391 16.2927 46.2824 
89 1 1 -0.834 17.6678 7.09938 40.3155 
90 1 1 -0.834 2.53164 6.78796 56.5374 
91 1 1 -0.834 3.00938 21.0894 78.1351 
92 1 1 -0.834 21.6397 5.58238 39.0672 
93 1 1 -0.834 2.72157 19.4933 56.9331 
94 1 1 -0.834 21.604 3.29922 63.2491 
95 1 1 -0.834 20.3911 18.5249 60.7864 
96 1 1 -0.834 13.1191 18.5524 60.6732 
97 1 1 -0.834 1.5401 15.0444 60.998 
98 1 1 -0.834 7.4367 18.9756 56.9058 
99 1 1 -0.834 5.30637 22.1267 37.5383 
100 1 1 -0.834 23.8104 15.5373 76.3682 
101 1 1 -0.834 23.1036 2.56126 58.3185 
102 1 1 -0.834 20.6398 16.7032 57.5199 
103 1 1 -0.834 4.13883 7.87171 48.5776 
104 1 1 -0.834 22.2606 9.26047 35.1799 
105 1 1 -0.834 10.1086 0.295531 41.4849 
106 1 1 -0.834 7.66836 18.1442 54.0437 
107 1 1 -0.834 7.81129 9.33387 41.3314 
108 1 1 -0.834 13.4677 8.37474 26.8308 
109 1 1 -0.834 12.157 8.06237 61.8311 
110 1 1 -0.834 18.9797 17.9787 4.59857 
111 1 1 -0.834 15.4414 10.5784 63.0776 
112 1 1 -0.834 0.147193 12.1606 77.7379 
113 1 1 -0.834 9.23512 8.45599 31.0543 
114 1 1 -0.834 20.1242 9.88248 70.122 
115 1 1 -0.834 23.0332 7.03903 37.2122 
116 1 1 -0.834 16.8665 11.2122 44.9494 
117 1 1 -0.834 21.2754 0.121323 74.7016 
118 1 1 -0.834 4.10546 15.2142 48.4091 
119 1 1 -0.834 17.4972 13.4104 70.9896 
120 1 1 -0.834 3.18822 5.25809 44.9669 
121 1 1 -0.834 16.0567 4.21727 41.2857 
122 1 1 -0.834 12.6408 1.63514 81.1739 
123 1 1 -0.834 1.85389 8.93679 15.5264 
124 1 1 -0.834 22.3834 4.61612 70.4851 
125 1 1 -0.834 10.1403 1.75368 57.0186 
126 1 1 -0.834 5.70792 7.87155 78.799 
127 1 1 -0.834 11.1474 3.98601 59.992 
128 1 1 -0.834 17.4887 1.9713 0.616433 
129 1 1 -0.834 6.24123 23.1199 64.0751 
130 1 1 -0.834 13.882 16.7093 65.2277 
131 1 1 -0.834 23.7056 21.213 61.7026 
132 1 1 -0.834 11.1499 9.89945 72.3129 
133 1 1 -0.834 7.42542 3.01508 54.057 
134 1 1 -0.834 0.834023 4.88653 6.52743 
135 1 1 -0.834 1.15578 23.1735 63.878 
136 1 1 -0.834 0.651558 0.401592 5.03752 
137 1 1 -0.834 11.5869 8.82474 86.5715 
138 1 1 -0.834 1.07231 10.8295 71.7831 
139 1 1 -0.834 20.8836 16.6544 70.9845 
140 1 1 -0.834 3.06882 17.3432 21.6933 
141 1 1 -0.834 12.4005 6.86511 55.7013 
142 1 1 -0.834 13.4508 14.9079 30.0714 
143 1 1 -0.834 0.75155 3.03875 73.4064 
144 1 1 -0.834 13.6884 1.24036 55.8474 
145 1 1 -0.834 10.7465 4.16527 75.6247 
146 1 1 -0.834 8.58361 1.89797 59.8125 
147 1 1 -0.834 10.021 11.2009 23.8232 
148 1 1 -0.834 21.0141 13.6041 14.6659 
149 1 1 -0.834 23.6937 5.84941 67.395 
150 1 1 -0.834 14.1418 14.3197 71.6657 
151 1 1 -0.834 4.08007 0.666347 46.6335 
152 1 1 -0.834 20.446 12.3813 56.1785 
153 1 1 -0.834 14.1679 13.281 52.9001 
154 1 1 -0.834 4.96195 2.99318 10.9138 
155 1 1 -0.834 10.1075 6.09025 48.9923 
156 1 1 -0.834 5.53891 17.6356 20.58 
157 1 1 -0.834 6.23025 11.0892 76.347 
158 1 1 -0.834 18.9121 3.34542 85.179 
159 1 1 -0.834 13.1383 21.8345 72.4996 
160 1 1 -0.834 12.4293 19.8648 63.6545 
161 1 1 -0.834 11.7323 14.6393 56.0759 
162 1 1 -0.834 2.85941 1.1838 32.4353 
163 1 1 -0.834 5.23062 3.49204 47.6921 
164 1 1 -0.834 11.6634 8.26018 49.4874 
165 1 1 -0.834 5.1452 9.8224 28.163 
166 1 1 -0.834 0.732728 18.938 71.7372 
167 1 1 -0.834 4.1164 23.1263 53.528 
168 1 1 -0.834 13.3782 8.14791 73.0883 
169 1 1 -0.834 2.14514 4.3959 68.0465 
170 1 1 -0.834 17.0101 5.18123 64.6739 
171 1 1 -0.834 13.355 6.86238 0.872788 
172 1 1 -0.834 3.08283 22.4088 56.7026 
173 1 1 -0.834 1.48068 11.0972 67.5231 
174 1 1 -0.834 5.76148 9.74511 56.051 
175 1 1 -0.834 12.5287 1.22205 41.1815 
176 1 1 -0.834 3.30157 20.845 49.0077 
177 1 1 -0.834 6.04932 9.65188 23.9239 
178 1 1 -0.834 9.93308 4.58692 28.1277 
179 1 1 -0.834 3.03356 9.18017 66.14 
180 1 1 -0.834 21.9462 3.7681 41.0939 
181 1 1 -0.834 12.6255 12.588 73.2892 
182 1 1 -0.834 6.35483 21.3267 61.304 
183 1 1 -0.834 7.76457 5.16542 43.5265 
184 1 1 -0.834 24.3786 11.4679 13.0059 
185 1 1 -0.834 12.6641 22.7687 64.5887 
186 1 1 -0.834 22.0705 24.1578 67.7803 
187 1 1 -0.834 9.56174 22.3736 49.9622 
188 1 1 -0.834 12.9818 11.2603 55.3668 
189 1 1 -0.834 2.06808 1.45348 36.7551 
190 1 1 -0.834 7.18472 0.391441 77.6155 
191 1 1 -0.834 21.7188 21.425 31.5312 
192 1 1 -0.834 18.3655 23.1213 53.528 
193 1 1 -0.834 15.9689 1.59503 18.9856 
194 1 1 -0.834 3.95348 3.70191 65.5415 
195 1 1 -0.834 14.3096 23.3675 80.5514 
196 1 1 -0.834 20.854 16.7682 54.2854 
197 1 1 -0.834 2.51224 13.5895 16.8782 
198 1 1 -0.834 6.0641 23.6393 79.7197 
199 1 1 -0.834 6.37401 6.53885 74.3055 
200 1 1 -0.834 2.48417 19.0036 80.6978 
201 1 1 -0.834 20.7708 9.51856 77.966 
202 1 1 -0.834 5.17602 13.0904 51.7675 
203 1 1 -0.834 16.0557 10.9937 53.9284 
204 1 1 -0.834 8.64501 0.074704 16.8973 
205 1 1 -0.834 15.1314 14.8273 13.3645 
206 1 1 -0.834 15.722 8.82754 76.2329 
207 1 1 -0.834 19.4791 21.4033 29.1577 
208 1 1 -0.834 15.4743 16.9418 77.7009 
209 1 1 -0.834 11.9783 24.1767 58.2909 
210 1 1 -0.834 14.1554 21.5278 54.739 
211 1 1 -0.834 2.61568 10.7405 78.8578 
212 1 1 -0.834 0.72076 13.1252 70.3579 
213 1 1 -0.834 12.538 14.2447 61.9717 
214 1 1 -0.834 16.8689 3.97144 58.5931 
215 1 1 -0.834 23.5478 13.821 17.4514 
216 1 1 -0.834 3.56819 13.845 65.8958 
217 1 1 -0.834 4.23495 2.31123 78.0045 
218 1 1 -0.834 9.17064 19.7087 18.7092 
219 1 1 -0.834 21.8407 17.1371 48.843 
220 1 1 -0.834 3.99154 12.7732 61.9159 
221 1 1 -0.834 22.7221 13.4913 52.1114 
222 1 1 -0.834 9.35348 16.1714 55.5258 
223 1 1 -0.834 15.2283 0.471082 74.6236 
224 1 1 -0.834 3.35826 5.02734 7.71264 
225 1 1 -0.834 2.4958 19.8055 20.2183 
226 1 1 -0.834 11.7913 3.86359 67.4326 
227 1 1 -0.834 2.99155 13.2147 80.1989 
228 1 1 -0.834 1.32549 8.5695 59.1072 
229 1 1 -0.834 1.64129 23.4867 52.404 
230 1 1 -0.834 14.7928 21.2852 59.2963 
231 1 1 -0.834 11.4962 11.7802 26.524 
232 1 1 -0.834 17.6002 16.738 79.9444 
233 1 1 -0.834 11.1211 5.86195 72.568 
234 1 1 -0.834 17.6918 9.50637 50.6292 
235 1 1 -0.834 0.817949 23.4722 58.4644 
236 1 1 -0.834 7.02949 2.32598 45.2219 
237 1 1 -0.834 20.3381 11.8723 68.1607 
238 1 1 -0.834 10.9757 22.4364 11.5958 
239 1 1 -0.834 14.4144 4.65793 63.6375 
240 1 1 -0.834 6.41953 7.81915 43.4861 
241 1 1 -0.834 15.0549 6.6729 50.4118 
242 1 1 -0.834 18.1839 10.7403 62.5192 
243 1 1 -0.834 8.27945 12.2286 74.7401 
244 1 1 -0.834 17.428 17.4944 28.6164 
245 1 1 -0.834 17.4941 17.338 44.3255 
246 1 1 -0.834 5.21247 1.05374 55.4764 
247 1 1 -0.834 18.0585 22.1596 71.2072 
248 1 1 -0.834 17.3646 20.028 43.6267 
249 1 1 -0.834 1.08307 18.2298 58.9013 
250 1 1 -0.834 6.35874 0.496953 57.9487 
251 1 1 -0.834 10.029 17.9479 64.3378 
252 1 1 -0.834 11.9322 6.94741 4.08742 
253 1 1 -0.834 8.82309 24.1921 68.0552 
254 1 1 -0.834 3.66722 8.10725 71.5894 
255 1 1 -0.834 9.70305 15.6793 41.7582 
256 1 1 -0.834 0.138077 4.15242 80.3978 
257 1 1 -0.834 24.3554 18.2696 79.3253 
258 1 1 -0.834 24.3649 21.4185 30.1202 
259 1 1 -0.834 11.3348 10.5642 75.9766 
260 1 1 -0.834 15.1839 8.44944 53.0895 
261 1 1 -0.834 8.05334 22.3069 57.3252 
262 1 1 -0.834 16.6126 3.11474 76.7021 
263 1 1 -0.834 6.68721 7.3784 28.7605 
264 1 1 -0.834 16.1344 8.67151 48.5698 
265 1 1 -0.834 10.5246 7.88318 74.7641 
266 1 1 -0.834 22.3863 10.2018 50.4853 
267 1 1 -0.834 11.7255 9.09851 28.626 
268 1 1 -0.834 10.1195 8.88312 51.8 
269 1 1 -0.834 15.0652 5.1525 56.3461 
270 1 1 -0.834 18.107 13.841 45.213 
271 1 1 -0.834 15.6722 4.16975 70.4193 
272 1 1 -0.834 21.1992 12.1557 74.3125 
273 1 1 -0.834 4.85363 18.9864 55.1869 
274 1 1 -0.834 15.2325 3.28452 16.5369 
275 1 1 -0.834 1.39331 21.6376 2.43474 
276 1 1 -0.834 9.73461 6.34728 23.5636 
277 1 1 -0.834 2.23359 9.56998 55.5665 
278 1 1 -0.834 7.56602 2.70306 9.47615 
279 1 1 -0.834 13.2646 11.797 58.3288 
280 1 1 -0.834 11.2017 3.49769 19.8979 
281 1 1 -0.834 22.6524 13.8231 54.8466 
282 1 1 -0.834 20.4374 1.21466 65.2528 
283 1 1 -0.834 5.16405 14.2064 77.6691 
284 1 1 -0.834 19.9739 21.195 44.1787 
285 1 1 -0.834 18.3568 21.0778 62.439 
286 1 1 -0.834 12.8425 19.0235 33.8428 
287 1 1 -0.834 15.7365 2.99006 61.2198 
288 1 1 -0.834 2.20548 10.3339 48.832 
289 1 1 -0.834 4.22976 5.60492 29.6572 
290 1 1 -0.834 21.606 5.40964 43.6913 
291 1 1 -0.834 21.1136 4.14103 14.9277 
292 1 1 -0.834 16.0874 23.555 60.6607 
293 1 1 -0.834 19.8167 10.5524 14.9088 
294 1 1 -0.834 2.4733 15.9291 72.6328 
295 1 1 -0.834 17.8775 19.5356 79.338 
296 1 1 -0.834 17.8091 1.56679 58.1037 
297 1 1 -0.834 7.88918 12.5482 61.3349 
298 1 1 -0.834 7.32223 20.5633 40.5403 
299 1 1 -0.834 1.66154 7.23381 47.5139 
300 1 1 -0.834 15.4333 14.9094 45.8511 
301 1 1 -0.834 21.4888 22.5123 40.5856 
302 1 1 -0.834 17.3975 0.434362 67.2706 
303 1 1 -0.834 11.9791 21.8096 77.0073 
304 1 1 -0.834 6.28179 4.15509 35.5207 
305 1 1 -0.834 21.0489 22.6454 51.9094 
306 1 1 -0.834 11.1526 17.8715 39.6267 
307 1 1 -0.834 11.3264 10.8633 3.35244 
308 1 1 -0.834 0.847603 19.3974 65.9899 
309 1 1 -0.834 4.91031 22.2955 76.0415 
310 1 1 -0.834 22.6218 18.0368 77.0486 
311 1 1 -0.834 12.1339 1.14078 21.861 
312 1 1 -0.834 19.4801 7.73303 13.868 
313 1 1 -0.834 7.20431 3.63255 72.2849 
314 1 1 -0.834 21.2975 5.78719 55.9544 
315 1 1 -0.834 8.06873 5.73607 53.7615 
316 1 1 -0.834 21.9798 18.968 69.4364 
317 1 1 -0.834 22.7822 1.06818 62.2645 
318 1 1 -0.834 24.0954 7.65259 56.9754 
319 1 1 -0.834 19.9069 5.26507 48.0622 
320 1 1 -0.834 23.9891 8.76555 63.9172 
321 1 1 -0.834 8.377 21.2578 35.4771 
322 1 1 -0.834 20.1525 17.5203 43.4641 
323 1 1 -0.834 20.36 0.214518 45.7744 
324 1 1 -0.834 13.0081 0.390068 85.104 
325 1 1 -0.834 4.514 8.1742 60.6472 
326 1 1 -0.834 19.1339 5.02532 76.4037 
327 1 1 -0.834 1.09537 15.0886 84.8998 
328 1 1 -0.834 23.4806 4.40666 11.104 
329 1 1 -0.834 1.91104 21.2625 27.6151 
330 1 1 -0.834 4.85264 5.37414 56.3462 
331 1 1 -0.834 17.5373 9.80336 56.0559 
332 1 1 -0.834 11.4187 13.7848 58.8994 
333 1 1 -0.834 0.752858 9.6561 51.1366 
334 1 1 -0.834 8.47209 19.9271 62.1949 
335 1 1 -0.834 14.9619 4.55668 53.3199 
336 1 1 -0.834 14.7104 13.9123 32.5102 
337 1 1 -0.834 14.478 13.8376 56.0634 
338 1 1 -0.834 9.92327 3.1388 52.6044 
339 1 1 -0.834 1.16695 19.2126 83.8116 
340 1 1 -0.834 19.6457 2.62969 47.0007 
341 1 1 -0.834 20.446 15.0654 67.8572 
342 1 1 -0.834 0.778219 19.3943 26.1454 
343 1 1 -0.834 20.2675 10.9817 44.1809 
344 1 1 -0.834 9.30828 7.68921 60.7335 
345 1 1 -0.834 0.212338 4.70351 60.8193 
346 1 1 -0.834 11.0298 10.2862 57.3246 
347 1 1 -0.834 9.12078 13.2825 52.6455 
348 1 1 -0.834 22.6095 20.123 72.1635 
349 1 1 -0.834 9.82801 14.8978 60.9762 
350 1 1 -0.834 19.759 20.9298 74.0302 
351 1 1 -0.834 16.8494 13.7599 54.3754 
352 1 1 -0.834 20.1874 18.5212 28.5039 
353 1 1 -0.834 10.3522 6.21503 58.5027 
354 1 1 -0.834 22.8939 19.8502 59.4709 
355 1 1 -0.834 3.16452 18.6348 50.4299 
356 1 1 -0.834 5.9357 5.99819 3.60715 
357 1 1 -0.834 16.7612 22.279 2.70469 
358 1 1 -0.834 1.23865 6.99132 61.9789 
359 1 1 -0.834 13.4446 17.4611 6.00001 
360 1 1 -0.834 18.844 23.9248 56.641 
361 1 1 -0.834 10.9017 23.152 61.3165 
362 1 1 -0.834 14.774 11.4481 9.42484 
363 1 1 -0.834 7.72101 13.0173 25.1624 
364 1 1 -0.834 10.3941 19.4829 46.0502 
365 1 1 -0.834 7.915 3.75653 69.3132 
366 1 1 -0.834 2.79526 23.7968 77.3094 
367 1 1 -0.834 12.9054 23.0414 42.9765 
368 1 1 -0.834 16.7347 8.73338 14.6691 
369 1 1 -0.834 20.3043 18.1099 78.566 
370 1 1 -0.834 0.172471 20.1834 43.0045 
371 1 1 -0.834 10.0855 10.1703 47.6378 
372 1 1 -0.834 18.6701 13.736 65.886 
373 1 1 -0.834 1.68718 0.533767 9.23992 
374 1 1 -0.834 5.16544 20.7744 46.0531 
375 1 1 -0.834 18.5854 6.73887 20.3636 
376 1 1 -0.834 13.7497 21.4987 15.1683 
377 1 1 -0.834 10.8068 20.3452 60.6629 
378 1 1 -0.834 0.212971 11.4639 47.3734 
379 1 1 -0.834 10.8718 15.0318 71.5372 
380 1 1 -0.834 15.4768 12.5037 50.1571 
381 1 1 -0.834 21.6575 21.8735 54.5333 
382 1 1 -0.834 20.1577 19.5795 55.1167 
383 1 1 -0.834 14.8875 21.1083 42.3476 
384 1 1 -0.834 19.7281 9.95644 38.5528 
385 1 1 -0.834 1.49849 12.6423 43.4754 
386 1 1 -0.834 9.64553 17.7459 70.0177 
387 1 1 -0.834 3.82319 11.1686 64.5172 
388 1 1 -0.834 0.165798 23.5972 43.3338 
389 1 1 -0.834 19.4954 16.9564 47.0885 
390 1 1 -0.834 18.8871 3.10501 23.6975 
391 1 1 -0.834 16.5931 23.1975 78.4742 
392 1 1 -0.834 16.7818 6.16103 68.8466 
393 1 1 -0.834 9.26641 20.8461 78.1511 
394 1 1 -0.834 1.89565 11.0206 18.044 
395 1 1 -0.834 15.5986 19.3382 8.77879 
396 1 1 -0.834 24.4199 10.851 58.7665 
397 1 1 -0.834 4.74905 17.7475 70.423 
398 1 1 -0.834 3.50333 10.7098 53.3375 
399 1 1 -0.834 17.875 0.855944 25.1345 
400 1 1 -0.834 15.1135 22.3269 52.0706 
401 1 1 -0.834 5.8415 17.3612 23.3869 
402 1 1 -0.834 21.1386 23.5695 29.6543 
403 1 1 -0.834 11.1993 22.5046 69.8894 
404 1 1 -0.834 7.91985 8.64016 47.5318 
405 1 1 -0.834 14.8239 19.7509 73.3586 
406 1 1 -0.834 17.7341 21.2274 25.4189 
407 1 1 -0.834 9.79496 12.4888 65.9232 
408 1 1 -0.834 14.3227 18.768 45.2039 
409 1 1 -0.834 12.7291 3.84839 57.2552 
410 1 1 -0.834 1.21383 4.08268 53.713 
411 1 1 -0.834 0.217402 9.45321 79.8416 
412 1 1 -0.834 11.815 14.9611 64.7618 
413 1 1 -0.834 12.2757 12.5957 47.4566 
414 1 1 -0.834 17.1826 10.7301 12.9641 
415 1 1 -0.834 18.4963 16.2414 64.4714 
416 1 1 -0.834 7.7452 9.21003 1.20391 
417 1 1 -0.834 7.43389 1.69209 35.0172 
418 1 1 -0.834 9.75763 5.35159 5.07277 
419 1 1 -0.834 12.8843 16.3619 67.8504 
420 1 1 -0.834 19.1521 2.37504 74.7288 
421 1 1 -0.834 22.3386 12.447 37.1096 
422 1 1 -0.834 13.3058 14.8582 50.9878 
423 1 1 -0.834 0.216595 21.1015 56.7474 
424 1 1 -0.834 11.3685 2.69637 50.0522 
425 1 1 -0.834 24.1685 10.6793 19.6271 
426 1 1 -0.834 0.649589 16.3324 54.7428 
427 1 1 -0.834 10.5674 12.1696 61.8954 
428 1 1 -0.834 2.64227 16.2273 76.3035 
429 1 1 -0.834 19.506 0.0763541 27.4545 
430 1 1 -0.834 18.741 16.0544 34.3165 
431 1 1 -0.834 16.0696 18.8501 30.6646 
432 1 1 -0.834 6.40574 6.54085 49.4367 
433 1 1 -0.834 19.6822 12.0426 71.9689 
434 1 1 -0.834 23.627 12.6311 82.1772 
435 1 1 -0.834 0.624979 5.20162 49.9752 
436 1 1 -0.834 12.873 4.93077 49.9748 
437 1 1 -0.834 15.3138 19.5644 48.4993 
438 1 1 -0.834 16.3119 24.2668 55.1488 
439 1 1 -0.834 8.78508 11.7885 29.0778 
440 1 1 -0.834 24.079 10.9302 44.2018 
441 1 1 -0.834 18.1975 17.2826 70.5114 
442 1 1 -0.834 3.54839 0.396251 58.8659 
443 1 1 -0.834 2.47652 21.1027 67.2188 
444 1 1 -0.834 13.4666 0.301393 47.797 
445 1 1 -0.834 4.82321 7.41686 45.8034 
446 1 1 -0.834 16.1194 6.11824 76.6967 
447 1 1 -0.834 18.165 9.13058 68.4707 
448 1 1 -0.834 11.0686 19.4098 80.377 
449 1 1 -0.834 21.3356 12.2061 12.2397 
450 1 1 -0.834 12.4938 5.63484 52.7655 
451 1 1 -0.834 19.3457 11.2667 64.9078 
452 1 1 -0.834 17.105 22.0439 57.7774 
453 1 1 -0.834 1.53492 19.7306 74.6116 
454 1 1 -0.834 7.77262 22.7828 12.259 
455 1 1 -0.834 19.1502 1.88385 20.1323 
456 1 1 -0.834 14.8745 3.02436 45.0022 
457 1 1 -0.834 0.520608 0.812612 28.8339 
458 1 1 -0.834 22.9574 1.47744 43.2672 
459 1 1 -0.834 18.2915 18.3863 8.47294 
460 1 1 -0.834 22.2269 0.418414 5.88719 
461 1 1 -0.834 2.45337 16.1616 57.5619 
462 1 1 -0.834 10.5523 4.28325 46.5181 
463 1 1 -0.834 5.54872 12.9441 82.9425 
464 1 1 -0.834 17.9775 8.13588 43.4031 
465 1 1 -0.834 22.6075 13.0659 39.6514 
466 1 1 -0.834 8.44855 15.2086 74.7628 
467 1 1 -0.834 12.9157 13.1372 76.8167 
468 1 1 -0.834 11.3924 21.0256 43.9463 
469 1 1 -0.834 15.2411 10.0248 71.8544 
470 1 1 -0.834 12.0466 17.031 48.3091 
471 1 1 -0.834 6.9808 8.24175 76.5278 
472 1 1 -0.834 5.06271 11.5703 1.41719 
473 1 1 -0.834 8.27505 18.9069 81.122 
474 1 1 -0.834 5.69717 19.2681 59.0054 
475 1 1 -0.834 11.1863 0.630506 68.9513 
476 1 1 -0.834 22.9244 21.4562 50.1094 
477 1 1 -0.834 10.6605 10.2122 69.4368 
478 1 1 -0.834 10.912 16.9479 36.5542 
479 1 1 -0.834 0.667537 13.2847 40.9983 
480 1 1 -0.834 18.8447 11.3581 17.5891 
481 1 1 -0.834 23.3913 18.505 22.3382 
482 1 1 -0.834 5.47487 17.3227 78.675 
483 1 1 -0.834 19.3794 10.9641 54.3035 
484 1 1 -0.834 2.06043 13.8544 77.5838 
485 1 1 -0.834 16.1102 7.15897 71.6806 
486 1 1 -0.834 16.2758 14.8885 51.4392 
487 1 1 -0.834 18.4704 16.5636 59.8651 
488 1 1 -0.834 21.8271 12.2562 47.9092 
489 1 1 -0.834 22.1449 10.3597 62.65 
490 1 1 -0.834 13.3396 12.1952 28.7721 
491 1 1 -0.834 4.05426 9.54006 3.34592 
492 1 1 -0.834 7.6594 6.93622 6.19632 
493 1 1 -0.834 3.31145 20.2377 52.7993 
494 1 1 -0.834 5.61338 14.7768 23.3687 
495 1 1 -0.834 17.3677 14.7355 56.9147 
496 1 1 -0.834 0.572108 11.5993 54.8076 
497 1 1 -0.834 12.1938 12.6866 34.2696 
498 1 1 -0.834 16.5574 12.3934 34.7978 
499 1 1 -0.834 22.3875 8.52487 60.4873 
500 1 1 -0.834 13.5165 6.61536 20.3248 
501 1 1 -0.834 6.69428 24.1722 46.2117 
502 1 1 -0.834 15.4706 9.91921 68.9133 
503 1 1 -0.834 8.70086 9.72176 73.7656 
504 1 1 -0.834 23.4718 22.9854 27.7321 
505 1 1 -0.834 16.4345 7.05019 62.8056 
506 1 1 -0.834 6.14412 9.50084 65.6318 
507 1 1 -0.834 4.93745 21.1735 73.5275 
508 1 1 -0.834 0.0661364 24.0531 70.7223 
509 1 1 -0.834 13.4439 12.8689 44.7413 
510 1 1 -0.834 7.65848 4.98233 26.2923 
511 1 1 -0.834 2.02516 7.70938 67.9906 
512 1 1 -0.834 4.75494 17.8718 75.6336 
513 1 1 -0.834 1.42183 15.9095 18.3398 
514 1 1 -0.834 22.3938 20.5092 78.8871 
515 1 1 -0.834 19.5647 16.1735 9.56151 
516 1 1 -0.834 12.0809 13.9362 69.1403 
517 1 1 -0.834 13.0053 10.508 43.4591 
518 1 1 -0.834 0.185702 1.68066 31.309 
519 1 1 -0.834 5.34846 12.5406 47.1574 
520 1 1 -0.834 10.7347 10.6679 30.7419 
521 1 1 -0.834 23.9139 12.7157 63.7883 
522 1 1 -0.834 0.698597 15.3286 50.0512 
523 1 1 -0.834 7.18021 17.4972 18.2197 
524 1 1 -0.834 0.0758717 22.8653 78.4259 
525 1 1 -0.834 20.0358 23.8654 85.9597 
526 1 1 -0.834 23.3161 16.0561 64.3698 
527 1 1 -0.834 7.92248 10.0195 58.2034 
528 1 1 -0.834 14.5183 2.24916 86.3604 
529 1 1 -0.834 19.897 7.50201 60.5187 
530 1 1 -0.834 23.1147 9.2861 76.2123 
531 1 1 -0.834 2.42382 17.7849 0.00381694 
532 1 1 -0.834 16.1092 14.9591 4.56036 
533 1 1 -0.834 13.2703 17.4523 30.418 
534 1 1 -0.834 0.85407 15.9932 67.5034 
535 1 1 -0.834 22.3743 21.9643 42.9229 
536 1 1 -0.834 21.9874 6.91322 72.0132 
537 1 1 -0.834 23.8972 21.9777 73.4866 
538 1 1 -0.834 10.5832 4.3498 43.5939 
539 1 1 -0.834 17.7508 15.133 73.0569 
540 1 1 -0.834 5.56039 21.3681 57.3134 
541 1 1 -0.834 23.8389 18.823 54.2254 
542 1 1 -0.834 16.2187 19.7345 60.9864 
543 1 1 -0.834 21.6854 22.5404 22.6554 
544 1 1 -0.834 19.8661 19.275 51.3416 
545 1 1 -0.834 5.80677 1.29037 7.43931 
546 1 1 -0.834 7.14877 23.2014 15.0194 
547 1 1 -0.834 9.86692 1.42299 38.7459 
548 1 1 -0.834 17.2553 16.1657 11.5493 
549 1 1 -0.834 21.7891 22.1537 3.98806 
550 1 1 -0.834 15.8851 15.2335 64.3672 
551 1 1 -0.834 2.35288 14.0582 20.3959 
552 1 1 -0.834 22.3262 16.7001 73.6829 
553 1 1 -0.834 14.749 15.0096 60.0336 
554 1 1 -0.834 13.0513 11.6386 32.0198 
555 1 1 -0.834 1.86264 23.2394 7.16145 
556 1 1 -0.834 5.90958 7.60818 58.5575 
557 1 1 -0.834 1.80356 0.255551 45.3518 
558 1 1 -0.834 16.2765 5.9435 60.2899 
559 1 1 -0.834 17.3333 10.4341 78.5718 
560 1 1 -0.834 8.66743 3.96612 63.3791 
561 1 1 -0.834 13.6039 4.95217 72.2319 
562 1 1 -0.834 1.71992 1.15713 12.1143 
563 1 1 -0.834 2.64762 17.3956 53.2472 
564 1 1 -0.834 5.20941 0.762465 12.5759 
565 1 1 -0.834 18.0082 7.9443 79.2416 
566 1 1 -0.834 0.331323 0.7791 34.0863 
567 1 1 -0.834 18.5928 6.90521 50.3354 
568 1 1 -0.834 10.5077 15.1937 46.4944 
569 1 1 -0.834 13.8479 4.75712 25.314 
570 1 1 -0.834 6.14799 15.3767 86.7275 
571 1 1 -0.834 3.07047 12.0348 45.7181 
572 1 1 -0.834 8.0537 23.1388 59.9869 
573 1 1 -0.834 7.88291 1.99045 50.8824 
574 1 1 -0.834 2.03287 16.2614 41.5335 
575 1 1 -0.834 12.6101 6.07211 81.6639 
576 1 1 -0.834 4.05746 16.0837 85.1617 
577 1 1 -0.834 0.881537 3.60308 33.733 
578 1 1 -0.834 9.43456 13.4132 68.7745 
579 1 1 -0.834 17.8742 1.80756 70.7208 
580 1 1 -0.834 6.86718 23.1962 39.9126 
581 1 1 -0.834 12.0042 9.78627 45.769 
582 1 1 -0.834 11.1244 20.2482 35.8255 
583 1 1 -0.834 23.4429 23.7068 31.5095 
584 1 1 -0.834 22.7735 20.4227 26.5777 
585 1 1 -0.834 15.5633 2.61703 25.9287 
586 1 1 -0.834 17.3658 15.2629 68.5351 
587 1 1 -0.834 12.562 18.6349 69.2699 
588 1 1 -0.834 13.8099 6.91138 59.336 
589 1 1 -0.834 20.9592 16.6723 2.89093 
590 1 1 -0.834 6.71156 24.093 74.998 
591 1 1 -0.834 6.43335 22.6524 71.4148 
592 1 1 -0.834 8.8083 2.82677 42.2416 
593 1 1 -0.834 23.402 3.92721 55.5592 
594 1 1 -0.834 24.3555 6.03605 43.3405 
595 1 1 -0.834 4.78032 20.2688 80.3345 
596 1 1 -0.834 16.8435 6.75955 54.685 
597 1 1 -0.834 21.459 22.2888 58.4864 
598 1 1 -0.834 7.98979 4.94584 76.0747 
599 1 1 -0.834 0.417524 10.5923 40.7827 
600 1 1 -0.834 22.2124 6.68118 58.512 
601 1 1 -0.834 20.5792 14.5298 46.0179 
602 1 1 -0.834 11.1281 13.322 50.5784 
603 1 1 -0.834 4.25632 17.6048 63.9806 
604 1 1 -0.834 7.24271 20.1388 37.7808 
605 1 1 -0.834 2.03007 13.9734 47.6095 
606 1 1 -0.834 12.8747 2.93972 62.0531 
607 1 1 -0.834 14.3969 13.0536 63.3276 
608 1 1 -0.834 16.5852 6.06458 74.0268 
609 1 1 -0.834 10.1029 23.0201 65.8698 
610 1 1 -0.834 5.10546 11.5637 74.0717 
611 1 1 -0.834 10.5507 16.7707 66.7025 
612 1 1 -0.834 14.8703 10.1678 33.8667 
613 1 1 -0.834 5.02418 19.6397 18.811 
614 1 1 -0.834 15.2971 13.2954 69.1543 
615 1 1 -0.834 4.94625 0.70722 49.6131 
616 1 1 -0.834 14.8817 12.5251 11.9256 
617 1 1 -0.834 13.0662 5.29535 84.852 
618 1 1 -0.834 3.72775 2.48816 34.6109 
619 1 1 -0.834 10.2 16.9698 58.4901 
620 1 1 -0.834 10.0439 8.40274 2.52635 
621 1 1 -0.834 10.9822 9.89945 60.0733 
622 1 1 -0.834 17.8642 11.3673 9.50479 
623 1 1 -0.834 4.26861 17.0634 81.5075 
624 1 1 -0.834 18.3012 0.585302 60.6406 
625 1 1 -0.834 7.85724 24.3532 53.8498 
626 1 1 -0.834 1.70069 22.4744 61.4086 
627 1 1 -0.834 18.6627 4.29358 82.0913 
628 1 1 -0.834 4.16811 7.04969 5.9359 
629 1 1 -0.834 2.95117 14.4097 25.1471 
630 1 1 -0.834 3.91244 18.732 84.6468 
631 1 1 -0.834 5.80335 11.5089 59.6284 
632 1 1 -0.834 2.73456 13.3482 50.7002 
633 1 1 -0.834 19.4342 20.5225 59.0893 
634 1 1 -0.834 9.89274 18.8427 13.2853 
635 1 1 -0.834 2.69472 21.0945 71.5521 
636 1 1 -0.834 5.46939 7.45093 54.612 
637 1 1 -0.834 2.13978 7.07148 36.4223 
638 1 1 -0.834 4.85171 13.2823 57.7333 
639 1 1 -0.834 11.7856 5.06338 21.8245 
640 1 1 -0.834 8.14548 12.6126 46.2764 
641 1 1 -0.834 3.61642 10.5374 57.8562 
642 1 1 -0.834 6.34319 6.12978 68.7021 
643 1 1 -0.834 18.3679 9.0318 76.0567 
644 1 1 -0.834 17.4967 10.8554 58.6056 
645 1 1 -0.834 17.1308 7.87892 18.1283 
646 1 1 -0.834 22.8362 17.2602 43.6585 
647 1 1 -0.834 7.52841 4.88193 30.2322 
648 1 1 -0.834 19.376 13.6574 10.7057 
649 1 1 -0.834 20.1047 5.18206 17.4409 
650 1 1 -0.834 12.0653 0.255496 45.1608 
651 1 1 -0.834 10.4132 17.3311 61.6544 
652 1 1 -0.834 2.725 4.32097 10.2157 
653 1 1 -0.834 5.10484 10.1693 50.5326 
654 1 1 -0.834 8.72874 10.2528 26.722 
655 1 1 -0.834 6.60618 17.2912 83.4528 
656 1 1 -0.834 23.7229 14.4581 72.5953 
657 1 1 -0.834 7.39241 12.7276 85.1049 
658 1 1 -0.834 16.5085 17.3982 47.3053 
659 1 1 -0.834 7.84724 0.102499 62.3092 
660 1 1 -0.834 6.27981 0.249244 69.2447 
661 1 1 -0.834 13.7978 17.4946 12.9913 
662 1 1 -0.834 1.53832 2.37589 78.5882 
663 1 1 -0.834 10.9734 13.8342 30.0577 
664 1 1 -0.834 15.7198 1.7599 52.833 
665 1 1 -0.834 17.8639 21.1717 55.2865 
666 1 1 -0.834 17.4265 4.49611 51.478 
667 1 1 -0.834 16.1294 17.6049 56.3646 
668 1 1 -0.834 0.0010461 0.393986 73.8799 
669 1 1 -0.834 8.37567 11.6533 42.4448 
670 1 1 -0.834 13.3605 12.891 65.7795 
671 1 1 -0.834 23.6156 22.1328 6.03118 
672 1 1 -0.834 14.5498 19.862 56.9886 
673 1 1 -0.834 23.1208 23.5586 60.3156 
674 1 1 -0.834 7.11119 15.634 53.4203 
675 1 1 -0.834 16.1456 12.3376 80.2216 
676 1 1 -0.834 19.833 6.9505 81.8612 
677 1 1 -0.834 24.031 15.3884 23.1373 
678 1 1 -0.834 3.07905 6.31175 50.4628 
679 1 1 -0.834 21.7619 2.13936 72.6615 
680 1 1 -0.834 18.3551 20.1046 31.3054 
681 1 1 -0.834 8.39036 16.8676 72.565 
682 1 1 -0.834 5.87869 1.71774 80.3887 
683 1 1 -0.834 7.57321 21.2978 52.4736 
684 1 1 -0.834 22.8382 9.6977 16.4405 
685 1 1 -0.834 10.5403 9.75397 41.9667 
686 1 1 -0.834 4.17318 23.8049 67.9345 
687 1 1 -0.834 17.9607 18.58 57.9165 
688 1 1 -0.834 3.57969 21.8984 64.4736 
689 1 1 -0.834 23.1531 18.95 85.1995 
690 1 1 -0.834 6.78162 19.2588 71.3804 
691 1 1 -0.834 11.645 9.19639 24.7611 
692 1 1 -0.834 23.4596 7.6422 50.0221 
693 1 1 -0.834 9.16345 20.8627 67.4186 
694 1 1 -0.834 16.1726 16.9703 61.3844 
695 1 1 -0.834 19.4517 8.53386 36.1451 
696 1 1 -0.834 13.9148 21.8739 47.1413 
697 1 1 -0.834 7.44827 11.746 64.8497 
698 1 1 -0.834 23.5269 19.1235 47.7073 
699 1 1 -0.834 16.0138 18.051 63.8892 
700 1 1 -0.834 11.4129 16.1782 12.2696 
701 1 1 -0.834 22.3097 6.75408 77.9782 
702 1 1 -0.834 16.4337 12.9124 7.70226 
703 1 1 -0.834 2.07614 1.30192 54.0679 
704 1 1 -0.834 23.9909 23.7964 2.63564 
705 1 1 -0.834 3.69294 10.7956 20.3517 
706 1 1 -0.834 8.48164 9.34424 22.671 
707 1 1 -0.834 16.2613 7.71444 58.0103 
708 1 1 -0.834 5.61119 4.94925 62.2631 
709 1 1 -0.834 1.89709 5.17422 12.8862 
710 1 1 -0.834 2.74946 21.8835 43.2858 
711 1 1 -0.834 5.69598 13.4607 43.9707 
712 1 1 -0.834 1.86172 9.06176 39.1093 
713 1 1 -0.834 9.44449 12.1912 78.2205 
714 1 1 -0.834 3.7037 13.9402 54.7375 
715 1 1 -0.834 18.2656 2.86953 65.4002 
716 1 1 -0.834 19.5111 14.9517 61.5584 
717 1 1 -0.834 7.1912 4.00784 6.93659 
718 1 1 -0.834 19.4204 23.7032 5.16772 
719 1 1 -0.834 14.9948 3.65057 66.417 
720 1 1 -0.834 8.39387 18.4131 77.1156 
721 1 1 -0.834 18.7972 13.0772 37.4321 
722 1 1 -0.834 14.6823 20.6637 66.9313 
723 1 1 -0.834 3.75114 5.23612 35.3632 
724 1 1 -0.834 13.3546 24.3295 60.5473 
725 1 1 -0.834 2.60123 22.4067 74.1633 
726 1 1 -0.834 18.3042 13.2256 13.4886 
727 1 1 -0.834 2.36581 12.1562 59.6689 
728 1 1 -0.834 7.42536 21.3267 80.1961 
729 1 1 -0.834 3.27713 2.65314 44.2955 
730 1 1 -0.834 7.9773 14.4462 77.3436 
731 1 1 -0.834 23.3884 7.58614 45.2271 
732 1 1 -0.834 15.2344 1.70387 80.9762 
733 1 1 -0.834 11.2872 6.69865 45.3541 
734 1 1 -0.834 19.8272 13.0814 40.0449 
735 1 1 -0.834 6.691 24.1922 10.1945 
736 1 1 -0.834 11.2964 7.58859 68.7578 
737 1 1 -0.834 19.4299 9.40499 41.2735 
738 1 1 -0.834 7.58765 4.00233 48.4364 
739 1 1 -0.834 19.1513 14.7306 52.8026 
740 1 1 -0.834 4.69292 0.951298 38.0039 
741 1 1 -0.834 18.5197 3.38739 61.7493 
742 1 1 -0.834 14.1067 10.8582 75.6268 
743 1 1 -0.834 18.4429 23.7267 64.1245 
744 1 1 -0.834 11.7654 16.5486 32.6407 
745 1 1 -0.834 0.370841 3.79172 45.547 
746 1 1 -0.834 2.54479 18.0344 68.7418 
747 1 1 -0.834 13.6391 10.6041 52.213 
748 1 1 -0.834 9.99858 5.19111 70.2593 
749 1 1 -0.834 2.27529 3.54894 28.8228 
750 1 1 -0.834 3.73446 15.4994 1.33592 