ITEM: TIMESTEP
500000
ITEM: NUMBER OF ATOMS
5487
ITEM: BOX BOUNDS pp pp pp
2.4900000000000000e-01 2.4248999999999999e+01
2.5950000000000001e-01 2.4259499999999999e+01
0.0000000000000000e+00 1.0536952658408562e+02
ITEM: ATOMS id mol type q x y z
1 1 2 0.417 17.2985 17.7393 63.5793
2 1 2 0.417 18.1233 16.5177 62.8182
3 1 5 -0.834 17.4539 17.2457 62.7162
4 2 2 0.417 11.4025 9.83696 61.6077
5 2 2 0.417 10.118 9.78225 60.7469
6 2 5 -0.834 11.0497 10.1775 60.7951
7 3 2 0.417 13.1784 16.9377 64.5305
8 3 2 0.417 12.8938 15.4592 64.8248
9 3 5 -0.834 13.3789 16.0108 64.1774
10 4 2 0.417 13.7677 15.3981 60.4938
11 4 2 0.417 12.4975 15.9487 59.9742
12 4 5 -0.834 13.4548 15.9144 59.7895
13 5 2 0.417 2.37964 7.75315 35.4373
14 5 2 0.417 1.61275 8.99822 35.0615
15 5 5 -0.834 2.55234 8.61554 35.0751
16 6 2 0.417 13.5196 7.55609 68.7083
17 6 2 0.417 13.9316 6.85839 67.3564
18 6 5 -0.834 14.084 7.65325 67.8734
19 7 2 0.417 9.13829 19.2396 35.2514
20 7 2 0.417 8.47858 18.8979 36.5092
21 7 5 -0.834 8.86441 18.4763 35.7309
22 8 2 0.417 20.6231 2.23438 18.9785
23 8 2 0.417 20.0027 0.985771 18.9123
24 8 5 -0.834 20.7595 1.39093 19.3609
25 9 2 0.417 3.62787 11.2261 85.2127
26 9 2 0.417 5.05456 10.7684 85.1707
27 9 5 -0.834 4.15735 10.4308 85.3657
28 10 2 0.417 13.005 20.1321 73.7899
29 10 2 0.417 13.9451 19.5683 74.7504
30 10 5 -0.834 13.7476 19.5172 73.7537
31 11 2 0.417 11.5216 22.0676 73.1188
32 11 2 0.417 11.7811 23.1487 72.1446
33 11 5 -0.834 11.4747 22.2621 72.1928
34 12 2 0.417 13.9003 10.1715 50.5171
35 12 2 0.417 12.8744 9.35101 49.7439
36 12 5 -0.834 13.5668 9.23988 50.4647
37 13 2 0.417 19.3966 7.47768 58.6884
38 13 2 0.417 19.482 7.79772 57.2191
39 13 5 -0.834 19.1613 8.15534 58.0432
40 14 2 0.417 19.7265 19.0969 46.8625
41 14 2 0.417 18.7591 18.1149 46.2519
42 14 5 -0.834 19.3285 18.8132 45.9873
43 15 2 0.417 0.851779 6.09039 0.709026
44 15 2 0.417 23.7555 5.39349 105.368
45 15 5 -0.834 0.580668 5.20326 0.486393
46 16 2 0.417 5.91023 12.3412 52.2681
47 16 2 0.417 6.2475 13.0351 53.5342
48 16 5 -0.834 6.30306 13.2102 52.6103
49 17 2 0.417 4.1638 7.98031 77.5432
50 17 2 0.417 3.84914 7.43684 76.1339
51 17 5 -0.834 4.63528 7.63243 76.7393
52 18 2 0.417 20.1727 3.60091 90.6739
53 18 2 0.417 20.7769 4.03347 91.9396
54 18 5 -0.834 20.5383 4.41857 91.049
55 19 2 0.417 16.8451 14.526 68.4415
56 19 2 0.417 18.2254 14.204 68.9503
57 19 5 -0.834 17.5865 13.8957 68.3006
58 20 2 0.417 7.78661 18.358 58.293
59 20 2 0.417 6.6449 17.4217 57.8412
60 20 5 -0.834 7.60795 17.5385 57.7755
61 21 2 0.417 7.6853 2.56588 43.4336
62 21 2 0.417 8.36842 2.2118 44.7696
63 21 5 -0.834 8.41323 2.92852 44.0297
64 22 2 0.417 13.986 8.20459 76.4565
65 22 2 0.417 14.9848 9.22124 76.9917
66 22 5 -0.834 14.3682 9.11423 76.2217
67 23 2 0.417 5.66196 3.71552 78.4569
68 23 2 0.417 5.4263 3.20256 79.8809
69 23 5 -0.834 5.98336 3.85669 79.3756
70 24 2 0.417 12.6056 17.4881 82.7684
71 24 2 0.417 11.5686 16.4707 83.0355
72 24 5 -0.834 11.6483 17.4025 82.6516
73 25 2 0.417 20.5837 18.1114 71.6343
74 25 2 0.417 19.75 18.0909 72.8772
75 25 5 -0.834 19.6716 18.2308 71.8905
76 26 2 0.417 11.567 14.2201 45.1722
77 26 2 0.417 12.9811 13.7721 45.5767
78 26 5 -0.834 12.4641 14.0302 44.8171
79 27 2 0.417 22.1516 20.4935 59.5235
80 27 2 0.417 21.1456 21.4526 60.1107
81 27 5 -0.834 21.6039 21.2926 59.2533
82 28 2 0.417 7.73145 3.48608 36.761
83 28 2 0.417 8.79578 3.99713 37.6888
84 28 5 -0.834 8.32548 4.26722 36.8722
85 29 2 0.417 6.51911 16.6743 88.9385
86 29 2 0.417 6.4509 15.8357 90.1372
87 29 5 -0.834 6.33689 15.7759 89.1745
88 30 2 0.417 1.41852 24.0262 53.5048
89 30 2 0.417 0.734806 1.3139 53.1087
90 30 5 -0.834 0.732735 0.381755 52.8771
91 31 2 0.417 23.5296 15.6355 18.4523
92 31 2 0.417 23.9226 15.8144 16.9779
93 31 5 -0.834 24.2437 15.8917 17.8338
94 32 2 0.417 16.0718 21.871 89.9781
95 32 2 0.417 17.2501 21.4851 90.8724
96 32 5 -0.834 16.9278 21.4308 89.9191
97 33 2 0.417 3.43641 8.42535 61.887
98 33 2 0.417 4.2505 9.39636 61.0724
99 33 5 -0.834 3.94426 8.44632 61.0828
100 34 2 0.417 16.8595 0.326512 75.5722
101 34 2 0.417 17.6451 0.68073 76.8693
102 34 5 -0.834 16.7284 0.731009 76.4619
103 35 2 0.417 11.979 10.7541 67.0189
104 35 2 0.417 13.3572 11.3383 67.1693
105 35 5 -0.834 12.4483 11.6083 66.9621
106 36 2 0.417 10.7848 1.21937 81.2798
107 36 2 0.417 11.0325 23.764 81.5024
108 36 5 -0.834 11.4829 0.583163 81.118
109 37 2 0.417 21.0807 22.2762 70.0033
110 37 2 0.417 20.3911 23.2431 70.8793
111 37 5 -0.834 20.6642 23.1327 69.9548
112 38 2 0.417 17.2543 2.16258 87.5471
113 38 2 0.417 16.072 2.57338 88.3812
114 38 5 -0.834 16.5034 2.78918 87.5595
115 39 2 0.417 6.57371 23.884 39.0338
116 39 2 0.417 7.8807 23.1695 39.2344
117 39 5 -0.834 7.1377 23.6057 39.7856
118 40 2 0.417 15.0514 23.3934 10.657
119 40 2 0.417 13.6319 23.2483 10.9131
120 40 5 -0.834 14.2921 23.8909 11.1052
121 41 2 0.417 9.359 23.5979 76.294
122 41 2 0.417 9.84579 23.6517 77.7107
123 41 5 -0.834 9.57653 24.2435 77.0022
124 42 2 0.417 6.65165 12.6605 76.5937
125 42 2 0.417 5.40959 11.886 76.9583
126 42 5 -0.834 5.77889 12.7609 76.9755
127 43 2 0.417 0.315631 11.6613 73.8854
128 43 2 0.417 0.954748 13.0882 74.0837
129 43 5 -0.834 0.428143 12.5661 73.4549
130 44 2 0.417 12.9791 12.9698 48.3385
131 44 2 0.417 13.5549 13.9885 47.4871
132 44 5 -0.834 13.0482 13.191 47.3926
133 45 2 0.417 21.4789 17.6082 17.4108
134 45 2 0.417 22.6928 18.4418 16.9501
135 45 5 -0.834 21.965 18.4255 17.5673
136 46 2 0.417 14.8042 2.92276 47.1458
137 46 2 0.417 15.8005 2.64627 48.2428
138 46 5 -0.834 15.7188 3.15192 47.4036
139 47 2 0.417 2.99847 0.777216 54.9934
140 47 2 0.417 3.3522 23.6722 55.9233
141 47 5 -0.834 2.92735 23.7963 55.0858
142 48 2 0.417 6.2212 18.4379 89.5915
143 48 2 0.417 7.59084 19.2398 89.6615
144 48 5 -0.834 7.15791 18.5139 89.2173
145 49 2 0.417 16.8869 4.0176 86.2789
146 49 2 0.417 17.1128 5.4305 86.6557
147 49 5 -0.834 17.3661 4.82221 85.9178
148 50 2 0.417 5.91548 2.45906 90.9576
149 50 2 0.417 6.54624 1.24276 91.5347
150 50 5 -0.834 6.20482 2.10383 91.84
151 51 2 0.417 6.40327 5.36441 79.6866
152 51 2 0.417 7.74264 6.15461 79.8101
153 51 5 -0.834 6.75254 6.26371 79.8874
154 52 2 0.417 7.71313 18.2268 68.2135
155 52 2 0.417 7.64555 17.2015 69.2108
156 52 5 -0.834 7.03674 17.691 68.6333
157 53 2 0.417 20.345 0.92624 37.8772
158 53 2 0.417 19.4382 1.80185 36.9782
159 53 5 -0.834 20.2427 1.21038 36.9508
160 54 2 0.417 16.916 7.54475 46.6216
161 54 2 0.417 18.0287 8.14181 47.4896
162 54 5 -0.834 17.6881 8.17049 46.5636
163 55 2 0.417 5.57885 15.1471 69.5075
164 55 2 0.417 5.93704 16.3882 68.8993
165 55 5 -0.834 5.23703 15.6559 68.758
166 56 2 0.417 23.7866 14.2251 53.9776
167 56 2 0.417 22.523 14.4403 53.3679
168 56 5 -0.834 23.352 14.9217 53.4525
169 57 2 0.417 17.9216 20.8492 21.7336
170 57 2 0.417 19.136 20.9583 22.5404
171 57 5 -0.834 18.2115 20.8948 22.6824
172 58 2 0.417 18.7296 15.4512 40.1913
173 58 2 0.417 18.4894 16.7221 40.8645
174 58 5 -0.834 19.2364 16.2412 40.4819
175 59 2 0.417 21.753 1.53929 52.2685
176 59 2 0.417 21.2111 2.86613 51.8745
177 59 5 -0.834 21.9968 2.30588 51.7084
178 60 2 0.417 13.7761 18.6106 76.8698
179 60 2 0.417 14.137 20.0637 76.9902
180 60 5 -0.834 14.2741 19.2914 76.3443
181 61 2 0.417 16.2189 13.871 65.7765
182 61 2 0.417 15.3929 13.9557 64.4654
183 61 5 -0.834 15.29 13.7631 65.4358
184 62 2 0.417 1.88588 0.855697 38.734
185 62 2 0.417 1.9704 1.24051 37.3124
186 62 5 -0.834 1.27004 0.98299 37.977
187 63 2 0.417 6.81265 17.3316 33.4544
188 63 2 0.417 7.22952 17.8837 34.8412
189 63 5 -0.834 6.48397 17.89 34.1673
190 64 2 0.417 22.3199 18.3396 63.1554
191 64 2 0.417 21.0675 18.5542 64.0487
192 64 5 -0.834 21.5659 18.9422 63.2673
193 65 2 0.417 5.06228 16.469 45.3918
194 65 2 0.417 4.0209 15.6463 44.613
195 65 5 -0.834 4.52326 15.6672 45.44
196 66 2 0.417 8.18368 10.3812 85.3809
197 66 2 0.417 7.03786 9.75372 85.9337
198 66 5 -0.834 7.21024 10.4125 85.1979
199 67 2 0.417 16.4923 14.3478 50.8538
200 67 2 0.417 17.1603 14.1257 52.1017
201 67 5 -0.834 17.3963 14.2218 51.1941
202 68 2 0.417 7.22562 9.48538 36.1428
203 68 2 0.417 7.30283 10.8101 35.4424
204 68 5 -0.834 6.74164 10.0315 35.4506
205 69 2 0.417 23.5103 8.13234 35.7793
206 69 2 0.417 22.7208 8.48566 34.5554
207 69 5 -0.834 22.8639 8.76739 35.4906
208 70 2 0.417 12.7435 2.47035 67.4903
209 70 2 0.417 14.0256 1.68934 67.3021
210 70 5 -0.834 13.0559 1.5739 67.3445
211 71 2 0.417 19.5332 23.7552 68.6882
212 71 2 0.417 18.389 0.685946 68.7371
213 71 5 -0.834 19.0265 0.287189 68.0839
214 72 2 0.417 9.26715 3.0498 72.1631
215 72 2 0.417 10.1074 3.71765 73.2144
216 72 5 -0.834 9.94349 2.84168 72.9465
217 73 2 0.417 16.5179 1.24154 72.055
218 73 2 0.417 16.8828 23.8614 72.2345
219 73 5 -0.834 16.2754 0.360194 71.7644
220 74 2 0.417 22.866 23.0287 39.1784
221 74 2 0.417 21.533 22.5349 38.6656
222 74 5 -0.834 22.3982 22.852 38.3592
223 75 2 0.417 11.8057 11.3925 59.6557
224 75 2 0.417 12.6857 12.6407 59.9181
225 75 5 -0.834 12.4616 11.9717 59.2091
226 76 2 0.417 5.64514 7.3791 68.2246
227 76 2 0.417 5.25699 5.82826 68.2661
228 76 5 -0.834 5.82275 6.51673 67.7889
229 77 2 0.417 10.1193 5.32768 51.8851
230 77 2 0.417 8.79532 4.75886 52.0322
231 77 5 -0.834 9.23925 5.6085 52.3146
232 78 2 0.417 6.9332 3.13793 3.52579
233 78 2 0.417 7.60532 2.90979 4.92819
234 78 5 -0.834 6.75488 3.05588 4.50155
235 79 2 0.417 15.5767 11.1155 38.8255
236 79 2 0.417 15.6727 12.0369 37.7024
237 79 5 -0.834 15.6853 12.0221 38.654
238 80 2 0.417 7.92576 16.7675 76.6217
239 80 2 0.417 7.50202 17.5236 75.426
240 80 5 -0.834 7.56338 17.6112 76.3682
241 81 2 0.417 17.1011 6.2592 40.4777
242 81 2 0.417 17.0039 7.11155 39.2857
243 81 5 -0.834 16.4727 6.8901 40.1034
244 82 2 0.417 0.435291 11.5428 13.4107
245 82 2 0.417 0.427404 11.1545 11.9148
246 82 5 -0.834 0.885195 11.7062 12.537
247 83 2 0.417 21.5127 7.84477 45.6674
248 83 2 0.417 22.7807 8.32561 46.3518
249 83 5 -0.834 22.1292 8.67267 45.6816
250 84 2 0.417 7.60657 15.0742 81.0195
251 84 2 0.417 7.00244 15.1765 79.6192
252 84 5 -0.834 7.41855 15.7735 80.2718
253 85 2 0.417 11.7512 10.8234 90.4891
254 85 2 0.417 12.598 9.74048 91.1279
255 85 5 -0.834 12.5093 10.2954 90.2717
256 86 2 0.417 20.5323 11.2029 68.9286
257 86 2 0.417 20.0728 10.5299 70.0842
258 86 5 -0.834 19.7618 10.6387 69.2151
259 87 2 0.417 6.67878 8.36407 18.2112
260 87 2 0.417 6.1326 6.96771 17.9418
261 87 5 -0.834 5.98654 7.76633 18.4458
262 88 2 0.417 15.304 19.0668 88.83
263 88 2 0.417 16.4671 19.7651 89.4829
264 88 5 -0.834 16.1039 18.8591 89.3456
265 89 2 0.417 21.4732 0.923033 50.6046
266 89 2 0.417 20.1272 0.293075 50.2392
267 89 5 -0.834 21.0718 0.448052 49.9098
268 90 2 0.417 0.304586 4.4821 71.0668
269 90 2 0.417 24.194 4.18625 72.611
270 90 5 -0.834 24.2116 3.81449 71.7249
271 91 2 0.417 23.4275 23.2475 48.5473
272 91 2 0.417 22.0353 23.5897 48.1754
273 91 5 -0.834 22.8093 23.2061 47.7976
274 92 2 0.417 12.1861 11.1923 63.7235
275 92 2 0.417 13.5022 11.2661 64.5901
276 92 5 -0.834 13.1456 11.3667 63.6777
277 93 2 0.417 2.76537 2.78914 65.683
278 93 2 0.417 2.92643 3.26529 64.2493
279 93 5 -0.834 2.33645 2.78982 64.7851
280 94 2 0.417 7.2132 19.3619 61.5893
281 94 2 0.417 8.59388 18.9414 61.967
282 94 5 -0.834 7.67168 18.5907 61.8896
283 95 2 0.417 8.82642 7.48747 84.6177
284 95 2 0.417 9.93809 7.29338 85.5262
285 95 5 -0.834 9.46454 8.01889 85.1176
286 96 2 0.417 19.7105 21.6049 53.1925
287 96 2 0.417 20.1052 21.3036 51.7838
288 96 5 -0.834 19.3184 21.5846 52.2726
289 97 2 0.417 14.9411 23.9814 62.1051
290 97 2 0.417 14.0867 0.789735 62.9673
291 97 5 -0.834 14.6045 23.9171 62.9636
292 98 2 0.417 4.95189 10.8828 91.7452
293 98 2 0.417 5.21288 12.2663 91.0395
294 98 5 -0.834 4.49409 11.743 91.4153
295 99 2 0.417 7.10345 4.97142 24.3058
296 99 2 0.417 8.03263 5.51691 25.4016
297 99 5 -0.834 7.24657 4.99737 25.2857
298 100 2 0.417 19.1723 18.1279 65.714
299 100 2 0.417 20.1607 17.2907 66.5661
300 100 5 -0.834 20.0443 17.6386 65.6297
301 101 2 0.417 11.2425 18.1774 3.97185
302 101 2 0.417 11.0786 16.8919 3.25971
303 101 5 -0.834 11.0323 17.1902 4.14652
304 102 2 0.417 6.30645 8.16511 80.4267
305 102 2 0.417 7.41362 9.05258 80.9664
306 102 5 -0.834 6.57915 9.08174 80.4567
307 103 2 0.417 22.2984 10.4529 91.2294
308 103 2 0.417 23.7539 9.83648 90.902
309 103 5 -0.834 22.9373 10.238 90.4392
310 104 2 0.417 13.7777 14.7038 50.4808
311 104 2 0.417 14.7988 14.5889 49.2741
312 104 5 -0.834 14.73 14.667 50.2506
313 105 2 0.417 6.54924 19.8958 50.9852
314 105 2 0.417 7.14695 20.5388 49.7841
315 105 5 -0.834 7.36869 19.8823 50.449
316 106 2 0.417 2.71824 8.83169 64.0307
317 106 2 0.417 2.03924 7.51963 63.9629
318 106 5 -0.834 2.20251 8.30346 63.4416
319 107 2 0.417 10.9035 22.6874 55.4007
320 107 2 0.417 11.8117 23.7042 54.8578
321 107 5 -0.834 10.9695 23.3136 54.7135
322 108 2 0.417 12.3699 7.43323 75.6031
323 108 2 0.417 10.9094 7.49083 75.706
324 108 5 -0.834 11.6013 7.66278 75.0346
325 109 2 0.417 7.80165 4.65556 44.8867
326 109 2 0.417 8.74706 5.92368 45.1392
327 109 5 -0.834 8.14994 5.26371 45.5723
328 110 2 0.417 22.9685 0.719456 104.466
329 110 2 0.417 22.4963 1.34001 103.136
330 110 5 -0.834 22.9277 1.53476 104.001
331 111 2 0.417 4.28253 10.7334 74.826
332 111 2 0.417 2.86129 10.941 74.4043
333 111 5 -0.834 3.72337 11.0398 74.0908
334 112 2 0.417 19.781 12.1423 48.3716
335 112 2 0.417 19.6653 11.6507 46.9899
336 112 5 -0.834 20.3378 11.9463 47.5736
337 113 2 0.417 13.1194 16.7026 89.4793
338 113 2 0.417 12.4216 18.1777 89.3588
339 113 5 -0.834 13.0493 17.5485 89.9562
340 114 2 0.417 20.1576 19.6558 75.8147
341 114 2 0.417 20.0783 20.6854 74.7283
342 114 5 -0.834 20.7237 20.1179 75.2325
343 115 2 0.417 0.823674 3.52633 41.4019
344 115 2 0.417 23.9025 2.81507 40.4345
345 115 5 -0.834 0.563996 2.64197 41.1361
346 116 2 0.417 3.35719 12.1234 67.4278
347 116 2 0.417 3.03031 11.3226 68.7272
348 116 5 -0.834 2.75708 11.3726 67.7477
349 117 2 0.417 10.1701 4.05607 99.0196
350 117 2 0.417 10.857 5.43462 99.1902
351 117 5 -0.834 10.2359 4.82788 99.6187
352 118 2 0.417 0.706801 23.9991 0.727926
353 118 2 0.417 1.49971 1.10341 0.134797
354 118 5 -0.834 1.42439 0.607231 0.953113
355 119 2 0.417 8.07599 8.2729 88.0555
356 119 2 0.417 7.07342 9.31051 88.3558
357 119 5 -0.834 7.3408 8.758 87.6513
358 120 2 0.417 6.43362 11.7452 38.9348
359 120 2 0.417 6.0147 11.3248 37.5946
360 120 5 -0.834 6.84106 11.537 38.0511
361 121 2 0.417 6.64241 11.4188 83.904
362 121 2 0.417 5.35269 11.9471 83.0777
363 121 5 -0.834 6.11991 12.2079 83.58
364 122 2 0.417 1.172 22.0794 46.5909
365 122 2 0.417 23.5769 22.1172 46.4457
366 122 5 -0.834 0.350325 21.6867 46.0928
367 123 2 0.417 16.15 9.44223 83.5345
368 123 2 0.417 16.7183 8.32474 84.3741
369 123 5 -0.834 16.4217 9.27379 84.454
370 124 2 0.417 11.9131 19.4406 68.6888
371 124 2 0.417 11.9667 18.0069 68.9854
372 124 5 -0.834 11.881 18.5931 68.1772
373 125 2 0.417 24.2249 14.4717 69.7735
374 125 2 0.417 24.022 14.7461 68.3242
375 125 5 -0.834 0.745486 14.6066 69.0246
376 126 2 0.417 21.8544 7.8877 53.2109
377 126 2 0.417 23.1591 7.41519 53.7366
378 126 5 -0.834 22.4825 7.16981 53.0172
379 127 2 0.417 2.06601 24.119 46.7715
380 127 2 0.417 1.80268 24.0177 48.2531
381 127 5 -0.834 2.10592 23.4637 47.487
382 128 2 0.417 8.4651 20.7207 44.1333
383 128 2 0.417 7.09812 21.2169 43.6982
384 128 5 -0.834 7.70448 20.5091 43.5234
385 129 2 0.417 12.4196 9.04634 52.0077
386 129 2 0.417 11.1856 9.05731 52.8813
387 129 5 -0.834 12.1334 9.26426 52.8786
388 130 2 0.417 14.867 5.96116 59.6892
389 130 2 0.417 14.2317 7.40206 59.8119
390 130 5 -0.834 14.0233 6.41102 59.9609
391 131 2 0.417 1.71095 18.9543 88.92
392 131 2 0.417 1.80332 20.4435 88.7939
393 131 5 -0.834 2.02163 19.6347 88.3145
394 132 2 0.417 20.5999 21.1882 47.1521
395 132 2 0.417 21.2236 22.4574 46.8016
396 132 5 -0.834 20.5459 21.8513 46.4629
397 133 2 0.417 19.4032 21.7366 42.6121
398 133 2 0.417 18.7359 21.8103 41.2637
399 133 5 -0.834 19.4471 22.2451 41.7403
400 134 2 0.417 19.1337 10.9143 59.3856
401 134 2 0.417 19.0937 10.042 58.2245
402 134 5 -0.834 19.4882 10.8641 58.5036
403 135 2 0.417 16.0919 22.6422 93.0013
404 135 2 0.417 16.9992 23.6827 93.4542
405 135 5 -0.834 16.0355 23.5288 93.4167
406 136 2 0.417 18.0859 0.264841 87.9491
407 136 2 0.417 18.9284 0.731017 89.1121
408 136 5 -0.834 18.5799 1.03698 88.2724
409 137 2 0.417 24.2201 8.57379 47.4958
410 137 2 0.417 1.00253 7.22397 47.6543
411 137 5 -0.834 0.658265 7.88247 46.9821
412 138 2 0.417 20.6713 20.5872 57.7806
413 138 2 0.417 19.176 20.4083 57.7817
414 138 5 -0.834 19.9713 20.0669 57.3304
415 139 2 0.417 21.4057 19.7969 51.5835
416 139 2 0.417 22.4031 20.8248 50.9906
417 139 5 -0.834 21.4701 20.509 50.8839
418 140 2 0.417 9.76822 20.5313 52.2045
419 140 2 0.417 8.58079 19.8073 51.5902
420 140 5 -0.834 9.2736 19.7389 52.2908
421 141 2 0.417 6.42394 2.82343 60.3768
422 141 2 0.417 5.98447 3.74846 59.2267
423 141 5 -0.834 5.83177 2.86717 59.6084
424 142 2 0.417 13.4991 5.48988 39.5571
425 142 2 0.417 14.5406 6.56211 39.7704
426 142 5 -0.834 13.6467 6.47628 39.5247
427 143 2 0.417 4.47791 16.6826 63.1834
428 143 2 0.417 4.60414 16.4158 64.6576
429 143 5 -0.834 4.22103 17.0085 64.019
430 144 2 0.417 12.374 6.69415 93.054
431 144 2 0.417 13.6374 6.11917 93.5173
432 144 5 -0.834 12.7464 5.85607 93.3348
433 145 2 0.417 19.6716 11.5048 56.6352
434 145 2 0.417 20.1839 12.504 55.7472
435 145 5 -0.834 20.2167 11.5308 55.8284
436 146 2 0.417 6.1808 12.4766 16.7969
437 146 2 0.417 5.51472 11.8774 15.5909
438 146 5 -0.834 5.65702 12.7432 16.0595
439 147 2 0.417 1.60008 5.37657 43.2887
440 147 2 0.417 1.03208 5.49368 44.7282
441 147 5 -0.834 1.20099 5.98771 43.9381
442 148 2 0.417 20.6856 12.7638 38.6676
443 148 2 0.417 20.0039 12.4227 37.3335
444 148 5 -0.834 20.8796 12.4284 37.7533
445 149 2 0.417 18.1647 11.7739 7.93716
446 149 2 0.417 17.9035 13.2645 7.80525
447 149 5 -0.834 17.9988 12.5265 7.26527
448 150 2 0.417 4.13883 8.23042 86.8666
449 150 2 0.417 4.62187 8.18367 88.275
450 150 5 -0.834 4.73013 7.72242 87.3972
451 151 2 0.417 6.3508 11.487 44.3835
452 151 2 0.417 7.66123 11.339 45.2628
453 151 5 -0.834 7.32473 11.1433 44.3375
454 152 2 0.417 1.74231 1.69406 6.12013
455 152 2 0.417 2.87376 2.62134 6.73235
456 152 5 -0.834 2.02921 2.17299 6.93627
457 153 2 0.417 21.4484 14.1443 73.1504
458 153 2 0.417 22.4163 14.3289 74.2098
459 153 5 -0.834 21.9227 14.8337 73.5547
460 154 2 0.417 8.229 2.1963 51.9807
461 154 2 0.417 9.58285 2.43863 52.4632
462 154 5 -0.834 8.96656 2.81891 51.7675
463 155 2 0.417 1.84494 11.8303 38.612
464 155 2 0.417 0.381752 11.4468 38.7651
465 155 5 -0.834 1.08312 12.0264 39.1898
466 156 2 0.417 11.4327 8.8233 36.682
467 156 2 0.417 10.8161 7.93615 35.6613
468 156 5 -0.834 11.5412 8.58675 35.7057
469 157 2 0.417 5.27602 10.8322 40.9202
470 157 2 0.417 5.23156 12.3231 41.4075
471 157 5 -0.834 5.74998 11.6811 40.8595
472 158 2 0.417 17.5698 23.2441 46.71
473 158 2 0.417 18.9561 22.9316 46.0873
474 158 5 -0.834 18.0803 23.3652 45.8585
475 159 2 0.417 24.1098 8.30697 74.6891
476 159 2 0.417 23.4828 7.26316 75.6531
477 159 5 -0.834 23.4292 7.62375 74.7763
478 160 2 0.417 8.93766 3.22527 82.0389
479 160 2 0.417 9.60872 3.77955 83.3183
480 160 5 -0.834 9.1375 4.10694 82.5075
481 161 2 0.417 23.4656 2.08752 24.3227
482 161 2 0.417 23.1042 1.35285 23.0441
483 161 5 -0.834 23.7778 1.35759 23.85
484 162 2 0.417 16.4142 9.77633 73.2126
485 162 2 0.417 17.479 10.7832 73.0033
486 162 5 -0.834 17.364 9.75805 73.0756
487 163 2 0.417 9.02186 23.1551 69.4251
488 163 2 0.417 10.3823 22.9895 68.8679
489 163 5 -0.834 9.45174 22.5075 68.8635
490 164 2 0.417 6.60663 23.0758 81.0224
491 164 2 0.417 6.66093 23.7557 79.6702
492 164 5 -0.834 6.54089 23.9923 80.6408
493 165 2 0.417 2.41167 11.3848 76.9578
494 165 2 0.417 1.01791 11.3458 76.3553
495 165 5 -0.834 1.86734 10.8218 76.4002
496 166 2 0.417 22.1793 23.8073 21.4255
497 166 2 0.417 21.092 0.769622 20.9671
498 166 5 -0.834 21.3401 24.2072 21.7552
499 167 2 0.417 18.3866 19.8379 60.1321
500 167 2 0.417 18.2124 21.2536 59.7097
501 167 5 -0.834 17.9093 20.3923 59.4337
502 168 2 0.417 13.8149 4.68418 67.1975
503 168 2 0.417 14.9423 4.40682 66.2547
504 168 5 -0.834 14.3629 5.20458 66.5953
505 169 2 0.417 17.2776 19.7873 37.5624
506 169 2 0.417 16.2053 19.2254 36.5862
507 169 5 -0.834 16.7908 20.0406 36.6777
508 170 2 0.417 11.5599 6.82267 70.0603
509 170 2 0.417 12.6369 7.65389 70.7653
510 170 5 -0.834 12.1777 7.53863 69.8692
511 171 2 0.417 9.16692 7.32665 73.1138
512 171 2 0.417 10.4917 7.87785 73.1259
513 171 5 -0.834 9.73355 7.83684 72.527
514 172 2 0.417 14.7843 10.5959 90.366
515 172 2 0.417 15.4942 10.0611 89.0556
516 172 5 -0.834 15.2138 10.8333 89.5453
517 173 2 0.417 0.351027 0.673372 50.2064
518 173 2 0.417 23.5092 1.82609 50.5841
519 173 5 -0.834 0.345529 1.63758 50.0248
520 174 2 0.417 1.42996 3.45943 78.9552
521 174 2 0.417 2.52437 3.45194 79.9433
522 174 5 -0.834 2.34814 3.46395 79.0123
523 175 2 0.417 12.8181 5.53003 61.0947
524 175 2 0.417 12.6331 5.15333 62.5547
525 175 5 -0.834 12.3744 4.83394 61.6344
526 176 2 0.417 22.2574 1.70377 82.3898
527 176 2 0.417 22.5212 3.21961 82.4146
528 176 5 -0.834 22.5244 2.47999 81.7499
529 177 2 0.417 3.5902 18.3494 75.5178
530 177 2 0.417 3.69489 18.5306 76.9968
531 177 5 -0.834 3.00972 18.4618 76.2548
532 178 2 0.417 21.1044 14.3961 51.2459
533 178 2 0.417 20.7131 14.2974 49.7743
534 178 5 -0.834 21.5186 14.291 50.3387
535 179 2 0.417 11.5948 8.81034 68.7725
536 179 2 0.417 10.5733 9.95375 68.5715
537 179 5 -0.834 11.0781 9.30137 68.0582
538 180 2 0.417 3.6928 22.4351 36.2276
539 180 2 0.417 4.1046 21.3436 35.1205
540 180 5 -0.834 3.31817 21.7106 35.6799
541 181 2 0.417 2.56143 13.741 76.5347
542 181 2 0.417 1.82598 14.8864 76.0214
543 181 5 -0.834 2.26977 14.0764 75.691
544 182 2 0.417 16.0693 0.285336 17.0702
545 182 2 0.417 15.9582 22.9038 17.6036
546 182 5 -0.834 16.333 23.7327 17.8207
547 183 2 0.417 0.605307 21.1171 90.5109
548 183 2 0.417 1.64339 22.0836 90.7559
549 183 5 -0.834 1.15606 21.6561 89.9743
550 184 2 0.417 13.0685 19.2016 70.7331
551 184 2 0.417 13.2833 18.7604 72.1749
552 184 5 -0.834 13.005 18.3877 71.3126
553 185 2 0.417 11.1345 20.7499 59.6578
554 185 2 0.417 11.6942 22.1258 59.9229
555 185 5 -0.834 11.2574 21.5824 59.19
556 186 2 0.417 7.12936 7.92529 38.1785
557 186 2 0.417 8.19851 8.76843 38.5313
558 186 5 -0.834 7.9174 8.29076 37.8039
559 187 2 0.417 15.3219 15.8213 44.662
560 187 2 0.417 14.3718 14.9232 44.0836
561 187 5 -0.834 15.3234 14.9635 44.3491
562 188 2 0.417 3.4546 14.3881 59.2376
563 188 2 0.417 2.76291 14.7851 60.5496
564 188 5 -0.834 3.26004 15.1915 59.8089
565 189 2 0.417 13.4686 4.44684 72.099
566 189 2 0.417 12.4554 3.54151 72.4608
567 189 5 -0.834 13.1577 3.56381 71.835
568 190 2 0.417 10.453 7.36799 23.3283
569 190 2 0.417 11.4802 6.2339 23.6701
570 190 5 -0.834 11.1276 6.76957 22.9435
571 191 2 0.417 3.65759 10.0388 37.5706
572 191 2 0.417 3.70181 11.2516 36.8175
573 191 5 -0.834 4.32654 10.4713 37.0077
574 192 2 0.417 22.2384 21.8054 76.4478
575 192 2 0.417 22.1376 20.3957 76.3348
576 192 5 -0.834 22.7083 21.0388 76.769
577 193 2 0.417 0.671623 6.31966 55.1712
578 193 2 0.417 1.2499 7.83068 55.2432
579 193 5 -0.834 0.434136 7.28279 54.9645
580 194 2 0.417 14.8628 19.5742 39.7359
581 194 2 0.417 15.9018 19.0007 40.6863
582 194 5 -0.834 15.5546 19.8782 40.3563
583 195 2 0.417 11.304 2.52623 45.568
584 195 2 0.417 10.6147 1.97735 46.7098
585 195 5 -0.834 10.8843 1.71173 45.8692
586 196 2 0.417 23.6814 3.33748 2.82504
587 196 2 0.417 0.517449 4.42144 2.04793
588 196 5 -0.834 0.272867 4.10689 2.98186
589 197 2 0.417 16.8996 1.56175 70.0095
590 197 2 0.417 18.1068 2.12324 70.6919
591 197 5 -0.834 17.7412 1.97874 69.7802
592 198 2 0.417 1.49471 18.3327 50.6972
593 198 2 0.417 2.23244 18.7348 49.3937
594 198 5 -0.834 1.32555 18.3834 49.7176
595 199 2 0.417 12.5879 14.5725 75.8681
596 199 2 0.417 12.805 15.5213 74.6186
597 199 5 -0.834 13.2229 14.6987 75.0408
598 200 2 0.417 9.06592 12.0353 47.1826
599 200 2 0.417 7.55892 11.8378 47.0469
600 200 5 -0.834 8.36128 11.536 46.6399
601 201 2 0.417 17.6997 14.1439 37.9886
602 201 2 0.417 16.5674 13.9338 38.8609
603 201 5 -0.834 17.3248 14.5814 38.7455
604 202 2 0.417 5.97238 19.319 43.575
605 202 2 0.417 4.81917 18.7446 44.0543
606 202 5 -0.834 5.23154 18.8152 43.1804
607 203 2 0.417 5.47561 3.10214 89.045
608 203 2 0.417 5.24321 1.84108 88.5801
609 203 5 -0.834 5.06296 2.35476 89.3869
610 204 2 0.417 17.2726 13.8664 86.4364
611 204 2 0.417 18.1648 14.6313 85.6429
612 204 5 -0.834 17.3924 14.0575 85.5177
613 205 2 0.417 20.3684 17.0107 55.5084
614 205 2 0.417 21.5466 16.2346 55.2077
615 205 5 -0.834 20.9121 16.7628 54.7232
616 206 2 0.417 18.7637 17.1087 0.254543
617 206 2 0.417 19.2273 16.9745 1.6533
618 206 5 -0.834 18.6817 17.5897 1.09878
619 207 2 0.417 4.62571 7.28544 91.3268
620 207 2 0.417 5.69656 6.33861 91.2279
621 207 5 -0.834 4.73843 6.34933 91.4175
622 208 2 0.417 7.03668 10.0891 91.0461
623 208 2 0.417 7.94919 11.1654 90.5913
624 208 5 -0.834 7.85706 10.1913 90.5018
625 209 2 0.417 12.9639 19.1892 80.7772
626 209 2 0.417 11.5902 18.4731 80.6792
627 209 5 -0.834 12.3232 18.819 80.1165
628 210 2 0.417 14.8954 9.49355 66.8905
629 210 2 0.417 15.5182 10.2754 65.7498
630 210 5 -0.834 14.6673 10.0057 66.1576
631 211 2 0.417 21.5666 20.2509 23.8833
632 211 2 0.417 20.5281 21.014 24.4818
633 211 5 -0.834 20.7839 20.0466 24.3792
634 212 2 0.417 3.30779 1.31773 41.1008
635 212 2 0.417 1.86329 1.63786 40.784
636 212 5 -0.834 2.61122 1.11278 40.4808
637 213 2 0.417 15.0335 4.18355 84.1585
638 213 2 0.417 14.6892 3.88778 82.7381
639 213 5 -0.834 15.4755 4.13821 83.2749
640 214 2 0.417 20.2545 7.29605 85.9978
641 214 2 0.417 21.1016 8.02049 84.9468
642 214 5 -0.834 20.2717 7.5667 85.0338
643 215 2 0.417 9.64645 5.48516 80.9511
644 215 2 0.417 10.1685 5.51246 79.526
645 215 5 -0.834 9.54413 5.96078 80.0843
646 216 2 0.417 17.2018 2.45791 49.7399
647 216 2 0.417 17.2179 1.22935 50.5264
648 216 5 -0.834 16.6455 1.69808 49.938
649 217 2 0.417 23.6044 8.57432 85.526
650 217 2 0.417 22.4758 9.34709 86.0442
651 217 5 -0.834 22.878 9.05293 85.1473
652 218 2 0.417 15.873 15.921 62.5719
653 218 2 0.417 14.6079 15.4081 63.2412
654 218 5 -0.834 15.489 15.0946 62.8768
655 219 2 0.417 5.93126 6.5499 76.7076
656 219 2 0.417 6.76251 6.41552 77.9033
657 219 5 -0.834 6.74676 6.07301 77
658 220 2 0.417 4.48898 16.371 73.6812
659 220 2 0.417 4.09279 16.5931 72.253
660 220 5 -0.834 4.79335 16.8167 72.8961
661 221 2 0.417 13.1101 6.35106 52.7251
662 221 2 0.417 12.3219 7.4789 53.4426
663 221 5 -0.834 12.7865 6.6004 53.6049
664 222 2 0.417 22.2531 8.80599 82.132
665 222 2 0.417 22.1509 9.38331 83.5116
666 222 5 -0.834 21.7941 9.48243 82.641
667 223 2 0.417 22.3635 12.3201 92.5081
668 223 2 0.417 23.1472 11.7257 93.6237
669 223 5 -0.834 22.4433 11.4381 92.9654
670 224 2 0.417 19.7256 8.88283 90.0915
671 224 2 0.417 19.2765 9.58357 88.9701
672 224 5 -0.834 19.3409 9.75666 89.9087
673 225 2 0.417 9.64962 5.79943 48.5429
674 225 2 0.417 8.4801 5.10511 48.2005
675 225 5 -0.834 8.89718 5.33477 49.0418
676 226 2 0.417 6.99365 10.5344 71.6033
677 226 2 0.417 6.08932 9.74696 72.6155
678 226 5 -0.834 6.14576 10.0782 71.7031
679 227 2 0.417 21.1879 24.056 75.7433
680 227 2 0.417 20.2358 23.1768 76.388
681 227 5 -0.834 21.0913 23.1464 75.8888
682 228 2 0.417 3.59965 9.80516 52.512
683 228 2 0.417 2.51306 9.71766 51.5053
684 228 5 -0.834 2.61542 9.6635 52.4704
685 229 2 0.417 1.7971 10.9191 43.9046
686 229 2 0.417 2.9503 10.2208 44.5414
687 229 5 -0.834 2.78676 10.9332 43.8903
688 230 2 0.417 23.2453 23.3684 43.6524
689 230 2 0.417 23.8683 22.107 44.2529
690 230 5 -0.834 23.8463 22.612 43.4215
691 231 2 0.417 0.386265 20.8046 62.2331
692 231 2 0.417 24.0749 19.9178 61.098
693 231 5 -0.834 0.730871 20.5267 61.3567
694 232 2 0.417 3.12377 2.35618 89.8102
695 232 2 0.417 1.95738 1.84839 88.9067
696 232 5 -0.834 2.1492 2.26001 89.7924
697 233 2 0.417 21.5893 7.76578 55.9067
698 233 2 0.417 21.7843 6.60466 56.6933
699 233 5 -0.834 21.0349 7.08411 56.2393
700 234 2 0.417 15.2974 8.9618 86.0686
701 234 2 0.417 14.7789 7.47591 86.417
702 234 5 -0.834 14.7902 8.40752 86.6899
703 235 2 0.417 19.0722 7.31038 45.9194
704 235 2 0.417 19.9008 6.43715 46.6289
705 235 5 -0.834 19.9843 6.90285 45.8089
706 236 2 0.417 20.9524 11.7742 72.0793
707 236 2 0.417 19.6236 12.3039 72.1795
708 236 5 -0.834 20.5131 12.6536 72.0988
709 237 2 0.417 19.5172 17.5196 22.9965
710 237 2 0.417 20.6522 16.5547 23.4898
711 237 5 -0.834 20.3385 17.0679 22.72
712 238 2 0.417 22.4664 16.6782 93.4174
713 238 2 0.417 23.8456 16.8034 93.8705
714 238 5 -0.834 23.0921 16.2588 94.0782
715 239 2 0.417 20.9642 17.9002 53.4723
716 239 2 0.417 21.5641 17.8222 52.1343
717 239 5 -0.834 21.0537 18.455 52.71
718 240 2 0.417 17.4651 7.88967 87.5513
719 240 2 0.417 19.0477 7.66238 87.6846
720 240 5 -0.834 18.3218 8.33395 87.4101
721 241 2 0.417 11.4862 4.74225 37.5992
722 241 2 0.417 12.1175 3.73542 36.6103
723 241 5 -0.834 11.2391 4.02336 36.9136
724 242 2 0.417 9.02298 9.29608 57.3032
725 242 2 0.417 8.60839 10.5894 57.5778
726 242 5 -0.834 9.02618 10.151 56.8512
727 243 2 0.417 10.2966 18.0985 45.5454
728 243 2 0.417 10.0629 19.5584 45.4171
729 243 5 -0.834 10.5006 18.8615 44.9527
730 244 2 0.417 8.83033 20.873 88.3773
731 244 2 0.417 9.51933 21.499 89.4512
732 244 5 -0.834 9.31529 20.5956 89.1358
733 245 2 0.417 5.54143 22.6084 66.6492
734 245 2 0.417 6.5024 22.6054 65.5596
735 245 5 -0.834 6.51165 22.7842 66.4827
736 246 2 0.417 0.263117 0.852602 64.6677
737 246 2 0.417 0.728773 2.25742 64.7623
738 246 5 -0.834 23.8916 1.76581 64.5685
739 247 2 0.417 15.356 15.4324 5.82241
740 247 2 0.417 15.4674 16.8179 6.08801
741 247 5 -0.834 15.9986 16.0276 6.10003
742 248 2 0.417 23.1338 16.0291 52.2066
743 248 2 0.417 22.9473 15.97 50.7515
744 248 5 -0.834 22.8885 16.5821 51.4133
745 249 2 0.417 21.2973 0.99963 69.5686
746 249 2 0.417 21.9767 2.00154 68.9106
747 249 5 -0.834 21.5979 1.89754 69.7638
748 250 2 0.417 15.8907 1.90628 75.6803
749 250 2 0.417 16.083 3.43357 75.5188
750 250 5 -0.834 15.4082 2.72309 75.3366
751 251 2 0.417 4.67541 9.25094 64.9484
752 251 2 0.417 4.02374 10.5772 65.3987