 DBCSR| CPU Multiplication driver                                           XSMM
 DBCSR| Multrec recursion limit                                              512
 DBCSR| Multiplication stack size                                           1000
 DBCSR| Maximum elements for images                                    UNLIMITED
 DBCSR| Multiplicative factor virtual images                                   1
 DBCSR| Use multiplication densification                                       T
 DBCSR| Multiplication size stacks                                             3
 DBCSR| Use memory pool for CPU allocation                                     F
 DBCSR| Number of 3D layers                                               SINGLE
 DBCSR| Use MPI memory allocation                                              F
 DBCSR| Use RMA algorithm                                                      F
 DBCSR| Use Communication thread                                               T
 DBCSR| Communication thread load                                             87
 DBCSR| MPI: My node id                                                        0
 DBCSR| MPI: Number of nodes                                                  24
 DBCSR| OMP: Current number of threads                                         1
 DBCSR| OMP: Max number of threads                                             1
 DBCSR| Split modifier for TAS multiplication algorithm                  1.0E+00


  **** **** ******  **  PROGRAM STARTED AT               2022-09-04 17:48:48.479
 ***** ** ***  *** **   PROGRAM STARTED ON         node1078.palmetto.clemson.edu
 **    ****   ******    PROGRAM STARTED BY                               xiutinc
 ***** **    ** ** **   PROGRAM PROCESS ID                               4186750
  **** **  *******  **  PROGRAM STARTED IN    /scratch1/xiutinc/CP2K-97000.pbs02

 CP2K| version string:                                          CP2K version 9.1
 CP2K| source code revision number:                                  git:d8d7100
 CP2K| cp2kflags: omp libint fftw3 libxc parallel mpi3 scalapack xsmm           
 CP2K| is freely available from                            https://www.cp2k.org/
 CP2K| Program compiled at                          Mon Aug  8 12:17:03 EDT 2022
 CP2K| Program compiled on                         node0352.palmetto.clemson.edu
 CP2K| Program compiled for                           linux-rocky8-ivybridge-gcc
 CP2K| Data directory path    /software/spackages/linux-rocky8-ivybridge/gcc-9.5
 CP2K| Input file name                                             intE05_aq.inp

 GLOBAL| Force Environment number                                              1
 GLOBAL| Basis set file name                                          BASIS_file
 GLOBAL| Potential file name                                     POTENTIALS_file
 GLOBAL| MM Potential file name                                     MM_POTENTIAL
 GLOBAL| Coordinate file name                                    ./intE05_aq.xyz
 GLOBAL| Method name                                                        CP2K
 GLOBAL| Project name                                                  intE05_aq
 GLOBAL| Run type                                                        GEO_OPT
 GLOBAL| FFT library                                                       FFTW3
 GLOBAL| Diagonalization library                                       ScaLAPACK
 GLOBAL| Orthonormality check for eigenvectors                          DISABLED
 GLOBAL| Matrix multiplication library                                 ScaLAPACK
 GLOBAL| All-to-all communication in single precision                          F
 GLOBAL| FFTs using library dependent lengths                                  F
 GLOBAL| Grid backend                                                       AUTO
 GLOBAL| Global print level                                                  LOW
 GLOBAL| MPI I/O enabled                                                       T
 GLOBAL| Total number of message passing processes                            24
 GLOBAL| Number of threads for this process                                    1
 GLOBAL| This output is from process                                           0
 GLOBAL| Stack size for threads created by OpenMP (OMP_STACKSIZE)        default
 GLOBAL| CPU model name                Intel(R) Xeon(R) CPU E5-2680 v3 @ 2.50GHz
 GLOBAL| CPUID                                                              1002
 GLOBAL| Compiled for CPUID                                                 1001

 *** HINT in environment.F:869 :: The compiler target flags (x86_avx) used ***
 *** to build this binary cannot exploit all extensions of this CPU model  ***
 *** (x86_avx2). Consider compiler target flags as part of FCFLAGS and     ***
 *** CFLAGS (ARCH file).                                                   ***


 MEMORY| system memory details [Kb]
 MEMORY|                        rank 0           min           max       average
 MEMORY| MemTotal            131294760     131294760     131294760     131294760
 MEMORY| MemFree             123630396     123630396     123630396     123630396
 MEMORY| Buffers                  3376          3376          3376          3376
 MEMORY| Cached                2361032       2361032       2361032       2361032
 MEMORY| Slab                   603300        603300        603300        603300
 MEMORY| SReclaimable           254296        254296        254296        254296
 MEMORY| MemLikelyFree       126249100     126249100     126249100     126249100


 *******************************************************************************
 *******************************************************************************
 **                                                                           **
 **     #####                         ##              ##                      **
 **    ##   ##            ##          ##              ##                      **
 **   ##     ##                       ##            ######                    **
 **   ##     ##  ##   ##  ##   #####  ##  ##   ####   ##    #####    #####    **
 **   ##     ##  ##   ##  ##  ##      ## ##   ##      ##   ##   ##  ##   ##   **
 **   ##  ## ##  ##   ##  ##  ##      ####     ###    ##   ######   ######    **
 **    ##  ###   ##   ##  ##  ##      ## ##      ##   ##   ##       ##        **
 **     #######   #####   ##   #####  ##  ##  ####    ##    #####   ##        **
 **           ##                                                    ##        **
 **                                                                           **
 **                                                ... make the atoms dance   **
 **                                                                           **
 **            Copyright (C) by CP2K developers group (2000-2021)             **
 **                      J. Chem. Phys. 152, 194103 (2020)                    **
 **                                                                           **
 *******************************************************************************


 TOTAL NUMBERS AND MAXIMUM NUMBERS

  Total number of            - Atomic kinds:                                   5
                             - Atoms:                                        661
                             - Shell sets:                                   661
                             - Shells:                                      3192
                             - Primitive Cartesian functions:               3116
                             - Cartesian basis functions:                   8749
                             - Spherical basis functions:                   8142

  Maximum angular momentum of- Orbital basis functions:                        3
                             - Local part of the GTH pseudopotential:          2
                             - Non-local part of the GTH pseudopotential:      3


 SCF PARAMETERS         Density guess:                                   RESTART
                        --------------------------------------------------------
                        max_scf:                                             500
                        max_scf_history:                                       0
                        max_diis:                                              4
                        --------------------------------------------------------
                        eps_scf:                                        1.00E-06
                        eps_scf_history:                                0.00E+00
                        eps_diis:                                       1.00E-01
                        eps_eigval:                                     1.00E-05
                        --------------------------------------------------------
                        level_shift [a.u.]:                                 0.00
                        --------------------------------------------------------
                        Outer loop SCF in use 
                        No variables optimised in outer loop
                        eps_scf                                         1.00E-06
                        max_scf                                               50
                        No outer loop optimization
                        step_size                                       5.00E-01

 BFGS| Use rational function optimization for step estimation:                NO
 BFGS| Use model Hessian for initial guess:                                  YES
 BFGS| Restart Hessian:                                                       NO
 BFGS| Trust radius:                                                       0.472

 *******************************************************************************
 ***                     STARTING GEOMETRY OPTIMIZATION                      ***
 ***                                   BFGS                                  ***
 *******************************************************************************

 Number of electrons:                                                       3296
 Number of occupied orbitals:                                               1648
 Number of molecular orbitals:                                              1648

 Number of orbital functions:                                               8142
 Number of independent orbital functions:                                   8142

 Extrapolation method: initial_guess

 *** WARNING in qs_initial_guess.F:309 :: User requested to restart the   ***
 *** wavefunction from the file named: intE05_aq-RESTART.wfn. This file   ***
 *** does not exist. Please check the existence of the file or change     ***
 *** properly the value of the keyword WFN_RESTART_FILE_NAME. Calculation ***
 *** continues using ATOMIC GUESS.                                        ***



 SCF WAVEFUNCTION OPTIMIZATION

  ----------------------------------- OT ---------------------------------------
  Minimizer      : CG                  : conjugate gradient
  Preconditioner : FULL_ALL            : diagonalization, state selective
  Precond_solver : DEFAULT
  Line search    : 2PNT                : 2 energies, one gradient
  stepsize       :    0.15000000                  energy_gap     :    0.00100000
  eps_taylor     :   0.10000E-15                  max_taylor     :             4
  ----------------------------------- OT ---------------------------------------

  Step     Update method      Time    Convergence         Total energy    Change
  ------------------------------------------------------------------------------
     1 OT CG       0.15E+00   41.7     0.01634534     -7214.5452182726 -7.21E+03
     2 OT LS       0.64E-01    4.6                    -7120.6642786869
     3 OT CG       0.64E-01   11.6     0.07890523     -7113.4951985320  1.01E+02
     4 OT LS       0.29E-01    4.6                    -6582.2881124331
     5 OT CG       0.29E-01   13.2     0.13526213     -6700.9739536243  4.13E+02
     6 OT LS       0.15E-01    4.6                    -6880.3350003155
     7 OT CG       0.15E-01   11.6     0.05759256     -7079.0057046254 -3.78E+02
     8 OT LS       0.88E-02    4.6                    -7173.7422877146
     9 OT CG       0.88E-02   11.6     0.01557585     -7199.7793373123 -1.21E+02
    10 OT LS       0.25E-01    4.6                    -7221.7473468606
    11 OT CG       0.25E-01   11.6     0.01767493     -7235.1893526578 -3.54E+01
    12 OT LS       0.26E-01    4.6                    -7283.8444867432
    13 OT CG       0.26E-01   11.6     0.01053115     -7284.6695256268 -4.95E+01
    14 OT LS       0.38E-01    4.6                    -7311.0359766175
    15 OT CG       0.38E-01   11.7     0.00759417     -7316.4795405708 -3.18E+01
    16 OT LS       0.36E-01    4.6                    -7332.4412281045
    17 OT CG       0.36E-01   11.6     0.01253101     -7332.6690596147 -1.62E+01
    18 OT LS       0.13E-01    4.6                    -7303.6963698822
    19 OT CG       0.13E-01   11.6     0.01189598     -7346.5418300792 -1.39E+01
    20 OT LS       0.11E-01    4.6                    -7357.1653943050
    21 OT CG       0.11E-01   11.6     0.00421666     -7357.1562899325 -1.06E+01
    22 OT LS       0.45E-01    4.6                    -7359.7977796623
    23 OT CG       0.45E-01   11.6     0.00317791     -7365.5519559398 -8.40E+00
    24 OT LS       0.12E+00    4.6                    -7371.3097957457
    25 OT CG       0.12E+00   11.6     0.00426196     -7375.5150337381 -9.96E+00
    26 OT LS       0.28E-01    4.6                    -7341.7505824283
    27 OT CG       0.28E-01   11.6     0.00397028     -7379.9515847906 -4.44E+00
    28 OT LS       0.38E-01    4.6                    -7383.8694834076
    29 OT CG       0.38E-01   12.3     0.00295721     -7384.2259984805 -4.27E+00
    30 OT LS       0.66E-01    5.4                    -7387.5312100946
    31 OT CG       0.66E-01   11.9     0.00291772     -7388.4704161819 -4.24E+00
    32 OT LS       0.33E-01    4.7                    -7388.4093250263
    33 OT CG       0.33E-01   13.1     0.00265620     -7390.7761268523 -2.31E+00
    34 OT LS       0.58E-01    4.6                    -7393.1176905046
    35 OT CG       0.58E-01   11.6     0.00268737     -7393.7234976773 -2.95E+00
    36 OT LS       0.42E-01    4.6                    -7395.5304871379
    37 OT CG       0.42E-01   11.6     0.00261625     -7395.7156984096 -1.99E+00
    38 OT LS       0.56E-01    4.6                    -7398.1904433781
    39 OT CG       0.56E-01   11.6     0.00297963     -7398.2282891730 -2.51E+00
    40 OT LS       0.43E-01    4.6                    -7400.1896586790
    41 OT CG       0.43E-01   11.6     0.00294595     -7400.4218139509 -2.19E+00
    42 OT LS       0.32E-01    4.6                    -7402.0073008899
    43 OT CG       0.32E-01   11.6     0.00213654     -7402.1691032780 -1.75E+00
    44 OT LS       0.85E-01    4.9                    -7403.7770220763
    45 OT CG       0.85E-01   11.6     0.00260069     -7404.5645087284 -2.40E+00
    46 OT LS       0.50E-01    4.6                    -7405.5224435415
    47 OT CG       0.50E-01   11.6     0.00244010     -7406.3437898621 -1.78E+00
    48 OT LS       0.46E-01    4.6                    -7408.1799666974
    49 OT CG       0.46E-01   11.6     0.00200476     -7408.1732164755 -1.83E+00
    50 OT LS       0.50E-01    4.6                    -7409.5932730943
    51 OT CG       0.50E-01   11.6     0.00165505     -7409.5889154775 -1.42E+00
    52 OT LS       0.67E-01    4.6                    -7410.6450055267
    53 OT CG       0.67E-01   11.6     0.00173855     -7410.7243034907 -1.14E+00
    54 OT LS       0.57E-01    4.6                    -7411.8486599697
    55 OT CG       0.57E-01   11.6     0.00173485     -7411.8620130685 -1.14E+00
    56 OT LS       0.76E-01    4.6                    -7413.3566799803
    57 OT CG       0.76E-01   11.6     0.00198889     -7413.4033865406 -1.54E+00
    58 OT LS       0.52E-01    4.6                    -7414.3476685219
    59 OT CG       0.52E-01   11.8     0.00222879     -7414.6137447581 -1.21E+00
    60 OT LS       0.50E-01    4.6                    -7416.2995077364
    61 OT CG       0.50E-01   11.6     0.00184095     -7416.2941132008 -1.68E+00
    62 OT LS       0.66E-01    4.6                    -7417.8241756163
    63 OT CG       0.66E-01   11.6     0.00175613     -7417.8698605699 -1.58E+00
    64 OT LS       0.55E-01    4.6                    -7418.8372871159
    65 OT CG       0.55E-01   11.6     0.00193572     -7418.8788868835 -1.01E+00
    66 OT LS       0.54E-01    4.6                    -7420.2262316853
    67 OT CG       0.54E-01   11.6     0.00155314     -7420.2218878770 -1.34E+00
    68 OT LS       0.80E-01    4.6                    -7421.4528305729
    69 OT CG       0.80E-01   11.6     0.00144167     -7421.5592656815 -1.34E+00
    70 OT LS       0.74E-01    4.6                    -7422.4769934338
    71 OT CG       0.74E-01   11.6     0.00177280     -7422.4813077341 -9.22E-01
    72 OT LS       0.61E-01    4.6                    -7423.7175318348
    73 OT CG       0.61E-01   11.6     0.00145049     -7423.7483425760 -1.27E+00
    74 OT LS       0.79E-01    4.7                    -7424.8435114132
    75 OT CG       0.79E-01   11.6     0.00135794     -7424.8802849362 -1.13E+00
    76 OT LS       0.79E-01    4.6                    -7425.7892258653
    77 OT CG       0.79E-01   11.6     0.00154486     -7425.7892650175 -9.09E-01
    78 OT LS       0.61E-01    4.9                    -7426.6804205615
    79 OT CG       0.61E-01   13.4     0.00125559     -7426.7455806700 -9.56E-01
    80 OT LS       0.86E-01    4.7                    -7427.5972644456
    81 OT CG       0.86E-01   11.6     0.00123254     -7427.6632202084 -9.18E-01
    82 OT LS       0.80E-01    4.6                    -7428.4335348194
    83 OT CG       0.80E-01   11.6     0.00134284     -7428.4402277077 -7.77E-01
    84 OT LS       0.72E-01    4.6                    -7429.2885638845
    85 OT CG       0.72E-01   11.6     0.00117174     -7429.2942952491 -8.54E-01
    86 OT LS       0.80E-01    4.6                    -7430.0402646827
    87 OT CG       0.80E-01   11.6     0.00113975     -7430.0458717198 -7.52E-01
    88 OT LS       0.74E-01    4.6                    -7430.6693274847
    89 OT CG       0.74E-01   11.7     0.00113755     -7430.6753974593 -6.30E-01
    90 OT LS       0.87E-01    4.6                    -7431.4034094431
    91 OT CG       0.87E-01   11.6     0.00107262     -7431.4253533736 -7.50E-01
    92 OT LS       0.77E-01    4.6                    -7432.0280402119
    93 OT CG       0.77E-01   11.6     0.00104850     -7432.0396573750 -6.14E-01
    94 OT LS       0.76E-01    4.6                    -7432.5984278507
    95 OT CG       0.76E-01   11.6     0.00103755     -7432.5985458188 -5.59E-01
    96 OT LS       0.85E-01    4.6                    -7433.1927218039
    97 OT CG       0.85E-01   11.6     0.00102228     -7433.2003153304 -6.02E-01
    98 OT LS       0.74E-01    4.6                    -7433.7183504885
    99 OT CG       0.74E-01   11.6     0.00093984     -7433.7283490207 -5.28E-01
   100 OT LS       0.84E-01    4.6                    -7434.2204278476
   101 OT CG       0.84E-01   11.6     0.00095825     -7434.2250467024 -4.97E-01
   102 OT LS       0.79E-01    4.6                    -7434.7014194257
   103 OT CG       0.79E-01   13.0     0.00097979     -7434.7029498610 -4.78E-01
   104 OT LS       0.76E-01    5.0                    -7435.1919222472
   105 OT CG       0.76E-01   13.1     0.00087332     -7435.1922505021 -4.89E-01
   106 OT LS       0.80E-01    5.6                    -7435.6078607241
   107 OT CG       0.80E-01   11.6     0.00085951     -7435.6087800548 -4.17E-01
   108 OT LS       0.81E-01    4.6                    -7436.0055026211
   109 OT CG       0.81E-01   11.6     0.00087236     -7436.0054906765 -3.97E-01
   110 OT LS       0.84E-01    4.6                    -7436.4293061786
   111 OT CG       0.84E-01   11.6     0.00087004     -7436.4301525271 -4.25E-01
   112 OT LS       0.75E-01    4.6                    -7436.8065482600
   113 OT CG       0.75E-01   11.6     0.00079836     -7436.8118532920 -3.82E-01
   114 OT LS       0.85E-01    4.6                    -7437.1720592702
   115 OT CG       0.85E-01   11.6     0.00079350     -7437.1768278297 -3.65E-01
   116 OT LS       0.79E-01    4.6                    -7437.5057751697
   117 OT CG       0.79E-01   11.6     0.00080787     -7437.5078944170 -3.31E-01
   118 OT LS       0.80E-01    4.9                    -7437.8565893572
   119 OT CG       0.80E-01   11.6     0.00075456     -7437.8566559260 -3.49E-01
   120 OT LS       0.82E-01    4.6                    -7438.1730105872
   121 OT CG       0.82E-01   11.6     0.00073411     -7438.1733364516 -3.17E-01
   122 OT LS       0.83E-01    4.6                    -7438.4732525301
   123 OT CG       0.83E-01   11.6     0.00072432     -7438.4732407274 -3.00E-01
   124 OT LS       0.81E-01    4.6                    -7438.7575912682
   125 OT CG       0.81E-01   11.6     0.00072451     -7438.7577110995 -2.84E-01
   126 OT LS       0.79E-01    4.6                    -7439.0366114958
   127 OT CG       0.79E-01   11.6     0.00068044     -7439.0367135723 -2.79E-01
   128 OT LS       0.83E-01    4.6                    -7439.2954537172
   129 OT CG       0.83E-01   11.6     0.00066702     -7439.2960158047 -2.59E-01
   130 OT LS       0.82E-01    4.6                    -7439.5425365338
   131 OT CG       0.82E-01   11.6     0.00065571     -7439.5425698575 -2.47E-01
   132 OT LS       0.84E-01    4.6                    -7439.7839835837
   133 OT CG       0.84E-01   11.7     0.00065044     -7439.7840467898 -2.41E-01
   134 OT LS       0.81E-01    4.6                    -7440.0118187741
   135 OT CG       0.81E-01   11.6     0.00062100     -7440.0121837469 -2.28E-01
   136 OT LS       0.83E-01    4.6                    -7440.2260666783
   137 OT CG       0.83E-01   11.6     0.00060199     -7440.2262088273 -2.14E-01
   138 OT LS       0.83E-01    4.6                    -7440.4293914730
   139 OT CG       0.83E-01   11.6     0.00059409     -7440.4294055113 -2.03E-01
   140 OT LS       0.84E-01    4.6                    -7440.6288863366
   141 OT CG       0.84E-01   11.6     0.00058976     -7440.6289026341 -1.99E-01
   142 OT LS       0.82E-01    4.6                    -7440.8184505587
   143 OT CG       0.82E-01   11.6     0.00056617     -7440.8186747855 -1.90E-01
   144 OT LS       0.84E-01    4.6                    -7440.9987183627
   145 OT CG       0.84E-01   11.6     0.00054631     -7440.9988635513 -1.80E-01
   146 OT LS       0.84E-01    4.6                    -7441.1670700295
   147 OT CG       0.84E-01   11.6     0.00053994     -7441.1670701895 -1.68E-01
   148 OT LS       0.85E-01    4.7                    -7441.3328912389
   149 OT CG       0.85E-01   11.6     0.00053354     -7441.3329068390 -1.66E-01
   150 OT LS       0.84E-01    4.6                    -7441.4927914645
   151 OT CG       0.84E-01   13.9     0.00052052     -7441.4928131360 -1.60E-01
   152 OT LS       0.83E-01    4.6                    -7441.6435917061
   153 OT CG       0.83E-01   11.6     0.00050149     -7441.6436053706 -1.51E-01
   154 OT LS       0.84E-01    4.6                    -7441.7853368453
   155 OT CG       0.84E-01   11.6     0.00049077     -7441.7853567694 -1.42E-01
   156 OT LS       0.85E-01    4.6                    -7441.9232236824
   157 OT CG       0.85E-01   11.6     0.00048517     -7441.9232569500 -1.38E-01
   158 OT LS       0.85E-01    4.6                    -7442.0576186298
   159 OT CG       0.85E-01   11.6     0.00047571     -7442.0576195025 -1.34E-01
   160 OT LS       0.84E-01    4.6                    -7442.1853336218
   161 OT CG       0.84E-01   11.6     0.00046189     -7442.1853495288 -1.28E-01
   162 OT LS       0.84E-01    4.6                    -7442.3059889991
   163 OT CG       0.84E-01   11.7     0.00044952     -7442.3059893100 -1.21E-01
   164 OT LS       0.86E-01    4.6                    -7442.4221125894
   165 OT CG       0.86E-01   11.6     0.00044405     -7442.4221434515 -1.16E-01
   166 OT LS       0.86E-01    4.6                    -7442.5357640262
   167 OT CG       0.86E-01   11.6     0.00043683     -7442.5357647604 -1.14E-01
   168 OT LS       0.85E-01    4.6                    -7442.6442644605
   169 OT CG       0.85E-01   11.6     0.00042800     -7442.6442833391 -1.09E-01
   170 OT LS       0.84E-01    4.6                    -7442.7478927932
   171 OT CG       0.84E-01   11.6     0.00041595     -7442.7478959749 -1.04E-01
   172 OT LS       0.86E-01    4.6                    -7442.8481171489
   173 OT CG       0.86E-01   11.6     0.00040863     -7442.8481769161 -1.00E-01
   174 OT LS       0.87E-01    4.6                    -7442.9454149891
   175 OT CG       0.87E-01   11.7     0.00040360     -7442.9454172174 -9.72E-02
   176 OT LS       0.86E-01    5.1                    -7443.0388690204
   177 OT CG       0.86E-01   12.2     0.00039665     -7443.0388896514 -9.35E-02
   178 OT LS       0.85E-01    4.8                    -7443.1289032332
   179 OT CG       0.85E-01   13.1     0.00038712     -7443.1289040126 -9.00E-02
   180 OT LS       0.86E-01    4.7                    -7443.2155854147
   181 OT CG       0.86E-01   11.6     0.00037987     -7443.2155961048 -8.67E-02
   182 OT LS       0.87E-01    4.6                    -7443.2997059922
   183 OT CG       0.87E-01   11.6     0.00037460     -7443.2997112817 -8.41E-02
   184 OT LS       0.86E-01    4.6                    -7443.3811324170
   185 OT CG       0.86E-01   11.6     0.00036838     -7443.3811341375 -8.14E-02
   186 OT LS       0.87E-01    4.6                    -7443.4599653327
   187 OT CG       0.87E-01   11.6     0.00036185     -7443.4599654091 -7.88E-02
   188 OT LS       0.86E-01    4.6                    -7443.5356856576
   189 OT CG       0.86E-01   11.6     0.00035512     -7443.5356870965 -7.57E-02
   190 OT LS       0.87E-01    4.6                    -7443.6089830306
   191 OT CG       0.87E-01   11.6     0.00034899     -7443.6089850788 -7.33E-02
   192 OT LS       0.87E-01    4.6                    -7443.6799662798
   193 OT CG       0.87E-01   11.7     0.00034306     -7443.6799668307 -7.10E-02
   194 OT LS       0.87E-01    4.6                    -7443.7488244606
   195 OT CG       0.87E-01   11.6     0.00033634     -7443.7488254858 -6.89E-02
   196 OT LS       0.87E-01    4.6                    -7443.8152175276
   197 OT CG       0.87E-01   11.6     0.00033023     -7443.8152181664 -6.64E-02
   198 OT LS       0.87E-01    4.6                    -7443.8790396963
   199 OT CG       0.87E-01   11.6     0.00032530     -7443.8790401263 -6.38E-02
   200 OT LS       0.87E-01    4.6                    -7443.9404488558
   201 OT CG       0.87E-01   11.6     0.00031924     -7443.9404530608 -6.14E-02
   202 OT LS       0.87E-01    4.6                    -7444.0000815898
   203 OT CG       0.87E-01   11.6     0.00031439     -7444.0000855650 -5.96E-02
   204 OT LS       0.87E-01    4.6                    -7444.0579078272
   205 OT CG       0.87E-01   11.6     0.00030811     -7444.0579078300 -5.78E-02
   206 OT LS       0.88E-01    4.6                    -7444.1139799003
   207 OT CG       0.88E-01   11.8     0.00030332     -7444.1139853464 -5.61E-02
   208 OT LS       0.88E-01    4.6                    -7444.1683189908
   209 OT CG       0.88E-01   11.6     0.00029816     -7444.1683189911 -5.43E-02
   210 OT LS       0.88E-01    4.6                    -7444.2209797468
   211 OT CG       0.88E-01   11.6     0.00029350     -7444.2209802453 -5.27E-02
   212 OT LS       0.88E-01    4.6                    -7444.2720069353
   213 OT CG       0.88E-01   11.6     0.00029009     -7444.2720069353 -5.10E-02
   214 OT LS       0.87E-01    4.6                    -7444.3210201117
   215 OT CG       0.87E-01   11.6     0.00028585     -7444.3210337848 -4.90E-02
   216 OT LS       0.88E-01    4.6                    -7444.3690108652
   217 OT CG       0.88E-01   11.6     0.00028081     -7444.3690139218 -4.80E-02
   218 OT LS       0.88E-01    4.6                    -7444.4156565854
   219 OT CG       0.88E-01   11.6     0.00027619     -7444.4156591430 -4.66E-02
   220 OT LS       0.89E-01    4.6                    -7444.4612104799
   221 OT CG       0.89E-01   11.6     0.00027208     -7444.4612145690 -4.56E-02
   222 OT LS       0.89E-01    4.7                    -7444.5054423569
   223 OT CG       0.89E-01   11.6     0.00026842     -7444.5054423655 -4.42E-02
   224 OT LS       0.89E-01    4.6                    -7444.5482588268
   225 OT CG       0.89E-01   13.2     0.00026483     -7444.5482599965 -4.28E-02
   226 OT LS       0.88E-01    4.7                    -7444.5897602081
   227 OT CG       0.88E-01   11.6     0.00026101     -7444.5897610034 -4.15E-02
   228 OT LS       0.88E-01    4.6                    -7444.6299989438
   229 OT CG       0.88E-01   11.6     0.00025769     -7444.6299990737 -4.02E-02
   230 OT LS       0.88E-01    4.6                    -7444.6691121045
   231 OT CG       0.88E-01   11.6     0.00025341     -7444.6691123843 -3.91E-02
   232 OT LS       0.89E-01    4.6                    -7444.7074056850
   233 OT CG       0.89E-01   11.6     0.00024941     -7444.7074115650 -3.83E-02
   234 OT LS       0.89E-01    4.6                    -7444.7446734314
   235 OT CG       0.89E-01   11.6     0.00024571     -7444.7446741531 -3.73E-02
   236 OT LS       0.89E-01    4.6                    -7444.7808018956
   237 OT CG       0.89E-01   11.7     0.00024273     -7444.7808019254 -3.61E-02
   238 OT LS       0.89E-01    4.6                    -7444.8159878256
   239 OT CG       0.89E-01   11.6     0.00023899     -7444.8159879694 -3.52E-02
   240 OT LS       0.89E-01    4.6                    -7444.8502358232
   241 OT CG       0.89E-01   11.6     0.00023677     -7444.8502363755 -3.42E-02
   242 OT LS       0.88E-01    4.6                    -7444.8834973872
   243 OT CG       0.88E-01   11.6     0.00023386     -7444.8835010499 -3.33E-02
   244 OT LS       0.88E-01    4.6                    -7444.9159347853
   245 OT CG       0.88E-01   11.6     0.00023082     -7444.9159347957 -3.24E-02
   246 OT LS       0.89E-01    4.6                    -7444.9477320142
   247 OT CG       0.89E-01   11.6     0.00022728     -7444.9477333088 -3.18E-02
   248 OT LS       0.90E-01    4.6                    -7444.9788009028
   249 OT CG       0.90E-01   12.6     0.00022427     -7444.9788027443 -3.11E-02
   250 OT LS       0.90E-01    4.7                    -7445.0090568146
   251 OT CG       0.90E-01   12.0     0.00022158     -7445.0090568146 -3.03E-02
   252 OT LS       0.89E-01    5.2                    -7445.0384495269
   253 OT CG       0.89E-01   12.3     0.00021829     -7445.0384501777 -2.94E-02
   254 OT LS       0.90E-01    4.6                    -7445.0672148399
   255 OT CG       0.90E-01   11.6     0.00021577     -7445.0672167983 -2.88E-02
   256 OT LS       0.89E-01    4.6                    -7445.0949985745
   257 OT CG       0.89E-01   11.6     0.00021349     -7445.0950022683 -2.78E-02
   258 OT LS       0.89E-01    4.6                    -7445.1221139808
   259 OT CG       0.89E-01   11.6     0.00021085     -7445.1221142592 -2.71E-02
   260 OT LS       0.89E-01    4.6                    -7445.1485573482
   261 OT CG       0.89E-01   11.6     0.00020755     -7445.1485573487 -2.64E-02
   262 OT LS       0.90E-01    4.6                    -7445.1744894564
   263 OT CG       0.90E-01   11.6     0.00020462     -7445.1744932677 -2.59E-02
   264 OT LS       0.90E-01    4.6                    -7445.1997896002
   265 OT CG       0.90E-01   11.6     0.00020204     -7445.1997898988 -2.53E-02
   266 OT LS       0.90E-01    4.6                    -7445.2244977249
   267 OT CG       0.90E-01   11.7     0.00019958     -7445.2244978042 -2.47E-02
   268 OT LS       0.90E-01    4.6                    -7445.2485602902
   269 OT CG       0.90E-01   11.6     0.00019718     -7445.2485603756 -2.41E-02
   270 OT LS       0.90E-01    4.6                    -7445.2719125384
   271 OT CG       0.90E-01   11.6     0.00019547     -7445.2719133239 -2.34E-02
   272 OT LS       0.89E-01    4.6                    -7445.2946118808
   273 OT CG       0.89E-01   11.6     0.00019323     -7445.2946146595 -2.27E-02
   274 OT LS       0.89E-01    4.6                    -7445.3168468772
   275 OT CG       0.89E-01   11.6     0.00019054     -7445.3168469853 -2.22E-02
   276 OT LS       0.90E-01    4.6                    -7445.3387976871
   277 OT CG       0.90E-01   11.6     0.00018757     -7445.3388029267 -2.20E-02
   278 OT LS       0.91E-01    4.6                    -7445.3603161349
   279 OT CG       0.91E-01   11.6     0.00018556     -7445.3603187743 -2.15E-02
   280 OT LS       0.91E-01    4.6                    -7445.3812461209
   281 OT CG       0.91E-01   11.7     0.00018392     -7445.3812469242 -2.09E-02
   282 OT LS       0.90E-01    4.6                    -7445.4016002140
   283 OT CG       0.90E-01   11.6     0.00018215     -7445.4016022631 -2.04E-02
   284 OT LS       0.89E-01    4.6                    -7445.4214296250
   285 OT CG       0.89E-01   11.6     0.00017998     -7445.4214305852 -1.98E-02
   286 OT LS       0.89E-01    4.6                    -7445.4408296809
   287 OT CG       0.89E-01   11.6     0.00017772     -7445.4408297677 -1.94E-02
   288 OT LS       0.90E-01    4.6                    -7445.4598459412
   289 OT CG       0.90E-01   11.6     0.00017553     -7445.4598464703 -1.90E-02
   290 OT LS       0.90E-01    4.6                    -7445.4785449132
   291 OT CG       0.90E-01   11.6     0.00017337     -7445.4785461210 -1.87E-02
   292 OT LS       0.91E-01    4.6                    -7445.4968841734
   293 OT CG       0.91E-01   11.6     0.00017182     -7445.4968846677 -1.83E-02
   294 OT LS       0.90E-01    4.6                    -7445.5147619399
   295 OT CG       0.90E-01   11.6     0.00017037     -7445.5147629424 -1.79E-02
   296 OT LS       0.90E-01    4.6                    -7445.5321932762
   297 OT CG       0.90E-01   11.7     0.00016853     -7445.5321945037 -1.74E-02
   298 OT LS       0.90E-01    7.5                    -7445.5493121934
   299 OT CG       0.90E-01   11.6     0.00016639     -7445.5493124093 -1.71E-02
   300 OT LS       0.90E-01    4.6                    -7445.5660883974
   301 OT CG       0.90E-01   11.6     0.00016434     -7445.5660888803 -1.68E-02
   302 OT LS       0.90E-01    4.6                    -7445.5824670998
   303 OT CG       0.90E-01   11.6     0.00016299     -7445.5824671101 -1.64E-02
   304 OT LS       0.90E-01    4.6                    -7445.5984418401
   305 OT CG       0.90E-01   11.6     0.00016135     -7445.5984429786 -1.60E-02
   306 OT LS       0.90E-01    4.6                    -7445.6141450151
   307 OT CG       0.90E-01   11.6     0.00015948     -7445.6141451635 -1.57E-02
   308 OT LS       0.91E-01    4.6                    -7445.6296286159
   309 OT CG       0.91E-01   11.6     0.00015748     -7445.6296299359 -1.55E-02
   310 OT LS       0.91E-01    4.6                    -7445.6447991208
   311 OT CG       0.91E-01   11.7     0.00015617     -7445.6447994508 -1.52E-02
   312 OT LS       0.90E-01    4.6                    -7445.6596008489
   313 OT CG       0.90E-01   11.6     0.00015495     -7445.6596017749 -1.48E-02
   314 OT LS       0.90E-01    4.6                    -7445.6740347280
   315 OT CG       0.90E-01   11.6     0.00015357     -7445.6740360138 -1.44E-02
   316 OT LS       0.89E-01    4.6                    -7445.6881962439
   317 OT CG       0.89E-01   11.6     0.00015163     -7445.6881962666 -1.42E-02
   318 OT LS       0.90E-01    4.6                    -7445.7021166860
   319 OT CG       0.90E-01   11.6     0.00014954     -7445.7021176510 -1.39E-02
   320 OT LS       0.91E-01    4.6                    -7445.7158073704
   321 OT CG       0.91E-01   11.6     0.00014783     -7445.7158090115 -1.37E-02
   322 OT LS       0.91E-01    4.8                    -7445.7291600785
   323 OT CG       0.91E-01   12.2     0.00014697     -7445.7291601348 -1.34E-02
   324 OT LS       0.90E-01    4.8                    -7445.7421829766
   325 OT CG       0.90E-01   12.3     0.00014566     -7445.7421852296 -1.30E-02
   326 OT LS       0.90E-01    5.6                    -7445.7549799309
   327 OT CG       0.90E-01   11.6     0.00014391     -7445.7549799309 -1.28E-02
   328 OT LS       0.91E-01    4.6                    -7445.7676202823
   329 OT CG       0.91E-01   11.6     0.00014275     -7445.7676221194 -1.26E-02
   330 OT LS       0.91E-01    4.6                    -7445.7799937561
   331 OT CG       0.91E-01   11.6     0.00014153     -7445.7799941143 -1.24E-02
   332 OT LS       0.91E-01    4.6                    -7445.7921664720
   333 OT CG       0.91E-01   11.6     0.00014028     -7445.7921664828 -1.22E-02
   334 OT LS       0.90E-01    4.6                    -7445.8041092951
   335 OT CG       0.90E-01   11.6     0.00013875     -7445.8041093173 -1.19E-02
   336 OT LS       0.91E-01    4.6                    -7445.8158363158
   337 OT CG       0.91E-01   11.6     0.00013762     -7445.8158364755 -1.17E-02
   338 OT LS       0.91E-01    4.6                    -7445.8273428051
   339 OT CG       0.91E-01   11.6     0.00013642     -7445.8273428869 -1.15E-02
   340 OT LS       0.90E-01    4.6                    -7445.8386372194
   341 OT CG       0.90E-01   11.6     0.00013529     -7445.8386372331 -1.13E-02
   342 OT LS       0.91E-01    4.6                    -7445.8497627548
   343 OT CG       0.91E-01   11.6     0.00013372     -7445.8497627809 -1.11E-02
   344 OT LS       0.91E-01    4.6                    -7445.8606996119
   345 OT CG       0.91E-01   11.6     0.00013284     -7445.8607000363 -1.09E-02
   346 OT LS       0.90E-01    4.6                    -7445.8714114948
   347 OT CG       0.90E-01   11.6     0.00013180     -7445.8714121418 -1.07E-02
   348 OT LS       0.90E-01    4.6                    -7445.8819077980
   349 OT CG       0.90E-01   11.6     0.00013057     -7445.8819080183 -1.05E-02
   350 OT LS       0.91E-01    4.6                    -7445.8922827437
   351 OT CG       0.91E-01   11.6     0.00012894     -7445.8922832867 -1.04E-02
   352 OT LS       0.91E-01    4.6                    -7445.9024808775
   353 OT CG       0.91E-01   11.6     0.00012791     -7445.9024814853 -1.02E-02
   354 OT LS       0.91E-01    4.6                    -7445.9124822202
   355 OT CG       0.91E-01   11.6     0.00012722     -7445.9124823470 -1.00E-02
   356 OT LS       0.90E-01    4.7                    -7445.9222848740
   357 OT CG       0.90E-01   11.6     0.00012618     -7445.9222857034 -9.80E-03
   358 OT LS       0.90E-01    4.6                    -7445.9319244707
   359 OT CG       0.90E-01   11.6     0.00012491     -7445.9319244724 -9.64E-03
   360 OT LS       0.91E-01    4.6                    -7445.9414234444
   361 OT CG       0.91E-01   11.6     0.00012359     -7445.9414237422 -9.50E-03
   362 OT LS       0.91E-01    4.6                    -7445.9507613766
   363 OT CG       0.91E-01   11.6     0.00012253     -7445.9507615277 -9.34E-03
   364 OT LS       0.91E-01    4.6                    -7445.9599233751
   365 OT CG       0.91E-01   11.6     0.00012146     -7445.9599234060 -9.16E-03
   366 OT LS       0.91E-01    4.6                    -7445.9689262480
   367 OT CG       0.91E-01   11.6     0.00012050     -7445.9689262480 -9.00E-03
   368 OT LS       0.91E-01    4.6                    -7445.9777444851
   369 OT CG       0.91E-01   11.6     0.00011945     -7445.9777446811 -8.82E-03
   370 OT LS       0.91E-01    4.6                    -7445.9864260563
   371 OT CG       0.91E-01   14.4     0.00011849     -7445.9864260816 -8.68E-03
   372 OT LS       0.91E-01    4.6                    -7445.9949700621
   373 OT CG       0.91E-01   11.6     0.00011753     -7445.9949700623 -8.54E-03
   374 OT LS       0.91E-01    4.6                    -7446.0033965903
   375 OT CG       0.91E-01   11.6     0.00011637     -7446.0033966395 -8.43E-03
   376 OT LS       0.91E-01    4.6                    -7446.0116808843
   377 OT CG       0.91E-01   11.6     0.00011559     -7446.0116809512 -8.28E-03
   378 OT LS       0.91E-01    4.6                    -7446.0198264826
   379 OT CG       0.91E-01   11.6     0.00011463     -7446.0198265821 -8.15E-03
   380 OT LS       0.91E-01    4.6                    -7446.0278536853
   381 OT CG       0.91E-01   11.6     0.00011388     -7446.0278537158 -8.03E-03
   382 OT LS       0.91E-01    4.6                    -7446.0357633745
   383 OT CG       0.91E-01   11.6     0.00011297     -7446.0357633984 -7.91E-03
   384 OT LS       0.91E-01    4.6                    -7446.0435431826
   385 OT CG       0.91E-01   11.9     0.00011221     -7446.0435431843 -7.78E-03
   386 OT LS       0.91E-01    4.6                    -7446.0512044933
   387 OT CG       0.91E-01   11.6     0.00011123     -7446.0512045207 -7.66E-03
   388 OT LS       0.91E-01    4.6                    -7446.0587636380
   389 OT CG       0.91E-01   11.6     0.00011036     -7446.0587637602 -7.56E-03
   390 OT LS       0.91E-01    4.6                    -7446.0662275857
   391 OT CG       0.91E-01   11.6     0.00010956     -7446.0662276493 -7.46E-03
   392 OT LS       0.91E-01    4.6                    -7446.0735571544
   393 OT CG       0.91E-01   11.6     0.00010894     -7446.0735572420 -7.33E-03
   394 OT LS       0.91E-01    4.6                    -7446.0807791135
   395 OT CG       0.91E-01   12.2     0.00010797     -7446.0807791995 -7.22E-03
   396 OT LS       0.91E-01    5.0                    -7446.0878985661
   397 OT CG       0.91E-01   11.9     0.00010717     -7446.0878986496 -7.12E-03
   398 OT LS       0.91E-01    5.6                    -7446.0949319060
   399 OT CG       0.91E-01   12.3     0.00010648     -7446.0949319542 -7.03E-03
   400 OT LS       0.91E-01    4.8                    -7446.1018605397
   401 OT CG       0.91E-01   11.6     0.00010573     -7446.1018605676 -6.93E-03
   402 OT LS       0.91E-01    4.6                    -7446.1086986393
   403 OT CG       0.91E-01   11.6     0.00010501     -7446.1086986454 -6.84E-03
   404 OT LS       0.91E-01    4.6                    -7446.1154126469
   405 OT CG       0.91E-01   11.6     0.00010429     -7446.1154127964 -6.71E-03
   406 OT LS       0.91E-01    4.6                    -7446.1220440087
   407 OT CG       0.91E-01   11.6     0.00010347     -7446.1220440186 -6.63E-03
   408 OT LS       0.91E-01    4.6                    -7446.1285840483
   409 OT CG       0.91E-01   11.6     0.00010260     -7446.1285840741 -6.54E-03
   410 OT LS       0.91E-01    4.6                    -7446.1350354723
   411 OT CG       0.91E-01   11.6     0.00010180     -7446.1350355400 -6.45E-03
   412 OT LS       0.91E-01    4.6                    -7446.1413872990
   413 OT CG       0.91E-01   11.6     0.00010104     -7446.1413872990 -6.35E-03
   414 OT LS       0.91E-01    4.6                    -7446.1476389580
   415 OT CG       0.91E-01   11.7     0.00010052     -7446.1476389633 -6.25E-03
   416 OT LS       0.91E-01    4.6                    -7446.1537857075
   417 OT CG       0.91E-01   11.6     0.00010000     -7446.1537859807 -6.15E-03
   418 OT LS       0.91E-01    4.6                    -7446.1598671464
   419 OT CG       0.91E-01   11.6     0.00009914     -7446.1598671476 -6.08E-03
   420 OT LS       0.91E-01    4.6                    -7446.1658860707
   421 OT CG       0.91E-01   11.6     0.00009837     -7446.1658863763 -6.02E-03
   422 OT LS       0.91E-01    4.6                    -7446.1718152514
   423 OT CG       0.91E-01   11.6     0.00009752     -7446.1718152524 -5.93E-03
   424 OT LS       0.92E-01    4.6                    -7446.1776757440
   425 OT CG       0.92E-01   11.6     0.00009708     -7446.1776759303 -5.86E-03
   426 OT LS       0.91E-01    4.6                    -7446.1834188219
   427 OT CG       0.91E-01   11.6     0.00009633     -7446.1834195480 -5.74E-03
   428 OT LS       0.91E-01    4.6                    -7446.1890775515
   429 OT CG       0.91E-01   11.6     0.00009572     -7446.1890775534 -5.66E-03
   430 OT LS       0.91E-01    4.8                    -7446.1946571261
   431 OT CG       0.91E-01   11.6     0.00009488     -7446.1946571374 -5.58E-03
   432 OT LS       0.91E-01    4.6                    -7446.2001652415
   433 OT CG       0.91E-01   11.6     0.00009419     -7446.2001653721 -5.51E-03
   434 OT LS       0.92E-01    4.6                    -7446.2056118878
   435 OT CG       0.92E-01   11.6     0.00009364     -7446.2056119431 -5.45E-03
   436 OT LS       0.91E-01    4.6                    -7446.2109744165
   437 OT CG       0.91E-01   11.6     0.00009295     -7446.2109744923 -5.36E-03
   438 OT LS       0.91E-01    4.6                    -7446.2162627583
   439 OT CG       0.91E-01   11.6     0.00009232     -7446.2162627616 -5.29E-03
   440 OT LS       0.91E-01    4.6                    -7446.2214786302
   441 OT CG       0.91E-01   11.6     0.00009167     -7446.2214786308 -5.22E-03
   442 OT LS       0.91E-01    4.6                    -7446.2266224252
   443 OT CG       0.91E-01   11.6     0.00009103     -7446.2266224258 -5.14E-03
   444 OT LS       0.91E-01    4.9                    -7446.2316815411
   445 OT CG       0.91E-01   13.3     0.00009049     -7446.2316815785 -5.06E-03
   446 OT LS       0.91E-01    4.6                    -7446.2366831807
   447 OT CG       0.91E-01   11.6     0.00008965     -7446.2366831824 -5.00E-03
   448 OT LS       0.91E-01    4.6                    -7446.2416139774
   449 OT CG       0.91E-01   11.6     0.00008927     -7446.2416140663 -4.93E-03
   450 OT LS       0.91E-01    4.6                    -7446.2464789791
   451 OT CG       0.91E-01   11.6     0.00008855     -7446.2464790968 -4.87E-03
   452 OT LS       0.92E-01    4.6                    -7446.2512960088
   453 OT CG       0.92E-01   11.6     0.00008800     -7446.2512961987 -4.82E-03
   454 OT LS       0.91E-01    4.6                    -7446.2560433140
   455 OT CG       0.91E-01   11.6     0.00008735     -7446.2560433383 -4.75E-03
   456 OT LS       0.91E-01    4.6                    -7446.2607102025
   457 OT CG       0.91E-01   11.6     0.00008687     -7446.2607102240 -4.67E-03
   458 OT LS       0.91E-01    4.6                    -7446.2653223541
   459 OT CG       0.91E-01   11.6     0.00008619     -7446.2653223571 -4.61E-03
   460 OT LS       0.91E-01    4.7                    -7446.2698474123
   461 OT CG       0.91E-01   11.6     0.00008563     -7446.2698474646 -4.53E-03
   462 OT LS       0.91E-01    4.6                    -7446.2743283045
   463 OT CG       0.91E-01   11.6     0.00008484     -7446.2743283460 -4.48E-03
   464 OT LS       0.92E-01    4.6                    -7446.2787487801
   465 OT CG       0.92E-01   11.6     0.00008411     -7446.2787488966 -4.42E-03
   466 OT LS       0.92E-01    4.6                    -7446.2831263466
   467 OT CG       0.92E-01   11.6     0.00008377     -7446.2831265895 -4.38E-03
   468 OT LS       0.91E-01    4.6                    -7446.2874072195
   469 OT CG       0.91E-01   12.9     0.00008341     -7446.2874080853 -4.28E-03
   470 OT LS       0.91E-01    5.0                    -7446.2916376618
   471 OT CG       0.91E-01   11.8     0.00008285     -7446.2916377166 -4.23E-03
   472 OT LS       0.91E-01    6.7                    -7446.2958153956
   473 OT CG       0.91E-01   11.6     0.00008206     -7446.2958154003 -4.18E-03
   474 OT LS       0.92E-01    4.6                    -7446.2999607772
   475 OT CG       0.92E-01   11.7     0.00008147     -7446.2999613273 -4.15E-03
   476 OT LS       0.92E-01    4.6                    -7446.3040474870
   477 OT CG       0.92E-01   11.6     0.00008084     -7446.3040474873 -4.09E-03
   478 OT LS       0.92E-01    4.6                    -7446.3080726241
   479 OT CG       0.92E-01   11.6     0.00008052     -7446.3080726258 -4.03E-03
   480 OT LS       0.91E-01    4.6                    -7446.3120254736
   481 OT CG       0.91E-01   11.6     0.00008005     -7446.3120258883 -3.95E-03
   482 OT LS       0.91E-01    4.6                    -7446.3159225090
   483 OT CG       0.91E-01   11.6     0.00007941     -7446.3159225388 -3.90E-03
   484 OT LS       0.91E-01    4.6                    -7446.3197852133
   485 OT CG       0.91E-01   11.6     0.00007884     -7446.3197854233 -3.86E-03
   486 OT LS       0.92E-01    4.6                    -7446.3236035037
   487 OT CG       0.92E-01   11.6     0.00007830     -7446.3236035329 -3.82E-03
   488 OT LS       0.91E-01    4.6                    -7446.3273624341
   489 OT CG       0.91E-01   11.7     0.00007784     -7446.3273624481 -3.76E-03
   490 OT LS       0.91E-01    4.6                    -7446.3310744600
   491 OT CG       0.91E-01   11.6     0.00007730     -7446.3310744626 -3.71E-03
   492 OT LS       0.91E-01    4.6                    -7446.3347363538
   493 OT CG       0.91E-01   11.6     0.00007673     -7446.3347363544 -3.66E-03
   494 OT LS       0.92E-01    4.6                    -7446.3383576929
   495 OT CG       0.92E-01   11.6     0.00007631     -7446.3383577365 -3.62E-03
   496 OT LS       0.91E-01    4.6                    -7446.3419176616
   497 OT CG       0.91E-01   11.6     0.00007581     -7446.3419177870 -3.56E-03
   498 OT LS       0.91E-01    4.6                    -7446.3454330568
   499 OT CG       0.91E-01   11.6     0.00007535     -7446.3454330576 -3.52E-03
   500 OT LS       0.91E-01    4.6                    -7446.3488938266

  Leaving inner SCF loop after reaching   500 steps.


  Electronic density on regular grids:      -3295.9999971080        0.0000028920
  Core density on regular grids:             3295.9999997996       -0.0000002004
  Total charge density on r-space grids:        0.0000026915
  Total charge density g-space grids:           0.0000026915

  Overlap energy of the core charge distribution:               0.00000899699999
  Self energy of the core charge distribution:             -19161.94884904004721
  Core Hamiltonian energy:                                   5437.69198344203323
  Hartree energy:                                            8016.04693372860311
  Exchange-correlation energy:                              -1735.99721301092632
  Dispersion energy:                                           -2.14175794325992

  Total energy:                                             -7446.34889382659549

  outer SCF iter =    1 RMS gradient =   0.75E-04 energy =      -7446.3488938266

  ----------------------------------- OT ---------------------------------------
  Minimizer      : CG                  : conjugate gradient
  Preconditioner : FULL_ALL            : diagonalization, state selective
  Precond_solver : DEFAULT
  Line search    : 2PNT                : 2 energies, one gradient
  stepsize       :    0.15000000                  energy_gap     :    0.00100000
  eps_taylor     :   0.10000E-15                  max_taylor     :             4
  ----------------------------------- OT ---------------------------------------

  Step     Update method      Time    Convergence         Total energy    Change
  ------------------------------------------------------------------------------
     1 OT CG       0.15E+00   49.2     0.00051088     -7446.3488938704 -3.46E-03
     2 OT LS       0.25E+00    4.6                    -7446.7155035126
     3 OT CG       0.25E+00   11.6     0.00003808     -7446.7832796918 -4.34E-01
     4 OT LS       0.59E-01    4.6                    -7446.7779524777
     5 OT CG       0.59E-01   11.6     0.00001216     -7446.7838623841 -5.83E-04
     6 OT LS       0.77E-01    4.6                    -7446.7839352624
     7 OT CG       0.77E-01   11.6     0.00000372     -7446.7839393774 -7.70E-05
     8 OT LS       0.12E+00    4.6                    -7446.7839490312
     9 OT CG       0.12E+00   11.6     0.00000177     -7446.7839504082 -1.10E-05
    10 OT LS       0.89E-01    4.6                    -7446.7839520876
    11 OT CG       0.89E-01   11.6     0.00000073     -7446.7839522876 -1.88E-06

  *** SCF run converged in    11 steps ***


  Electronic density on regular grids:      -3295.9999971078        0.0000028922
  Core density on regular grids:             3295.9999997996       -0.0000002004
  Total charge density on r-space grids:        0.0000026918
  Total charge density g-space grids:           0.0000026918

  Overlap energy of the core charge distribution:               0.00000899699999
  Self energy of the core charge distribution:             -19161.94884904004721
  Core Hamiltonian energy:                                   5437.26124499628168
  Hartree energy:                                            8016.12303307418551
  Exchange-correlation energy:                              -1736.07763237178415
  Dispersion energy:                                           -2.14175794325992

  Total energy:                                             -7446.78395228762201

  outer SCF iter =    2 RMS gradient =   0.73E-06 energy =      -7446.7839522876
  outer SCF loop converged in   2 iterations or  511 steps


 ENERGY| Total FORCE_EVAL ( QS ) energy [a.u.]:            -7446.783952606602725

 ATOMIC FORCES in [a.u.]

 # Atom   Kind   Element          X              Y              Z
      1      1      Ti          0.00000000     0.00000000     0.00000000
      2      2      Si          0.00000000     0.00000000     0.00000000
      3      2      Si          0.00000000     0.00000000     0.00000000
      4      2      Si          0.00000000     0.00000000     0.00000000
      5      2      Si          0.00000000     0.00000000     0.00000000
      6      2      Si          0.00000000     0.00000000     0.00000000
      7      2      Si          0.00000000     0.00000000     0.00000000
      8      2      Si          0.00000000     0.00000000     0.00000000
      9      2      Si          0.00000000     0.00000000     0.00000000
     10      2      Si          0.00000000     0.00000000     0.00000000
     11      2      Si          0.00000000     0.00000000     0.00000000
     12      2      Si          0.00000000     0.00000000     0.00000000
     13      2      Si          0.00000000     0.00000000     0.00000000
     14      2      Si          0.00000000     0.00000000     0.00000000
     15      2      Si          0.00000000     0.00000000     0.00000000
     16      2      Si          0.00000000     0.00000000     0.00000000
     17      2      Si          0.00000000     0.00000000     0.00000000
     18      2      Si          0.00000000     0.00000000     0.00000000
     19      2      Si          0.00000000     0.00000000     0.00000000
     20      2      Si          0.00000000     0.00000000     0.00000000
     21      2      Si          0.00000000     0.00000000     0.00000000
     22      2      Si          0.00000000     0.00000000     0.00000000
     23      2      Si          0.00000000     0.00000000     0.00000000
     24      2      Si          0.00000000     0.00000000     0.00000000
     25      2      Si          0.00000000     0.00000000     0.00000000
     26      2      Si          0.00000000     0.00000000     0.00000000
     27      2      Si          0.00000000     0.00000000     0.00000000
     28      2      Si          0.00000000     0.00000000     0.00000000
     29      2      Si          0.00000000     0.00000000     0.00000000
     30      2      Si          0.00000000     0.00000000     0.00000000
     31      2      Si          0.00000000     0.00000000     0.00000000
     32      2      Si          0.00000000     0.00000000     0.00000000
     33      2      Si          0.00000000     0.00000000     0.00000000
     34      2      Si          0.00000000     0.00000000     0.00000000
     35      2      Si          0.00000000     0.00000000     0.00000000
     36      2      Si          0.00000000     0.00000000     0.00000000
     37      2      Si          0.00000000     0.00000000     0.00000000
     38      2      Si          0.00000000     0.00000000     0.00000000
     39      2      Si          0.00000000     0.00000000     0.00000000
     40      2      Si          0.00000000     0.00000000     0.00000000
     41      2      Si          0.00000000     0.00000000     0.00000000
     42      2      Si          0.00000000     0.00000000     0.00000000
     43      2      Si          0.00000000     0.00000000     0.00000000
     44      2      Si          0.00000000     0.00000000     0.00000000
     45      2      Si          0.00000000     0.00000000     0.00000000
     46      2      Si          0.00000000     0.00000000     0.00000000
     47      2      Si          0.00000000     0.00000000     0.00000000
     48      2      Si          0.00000000     0.00000000     0.00000000
     49      2      Si          0.00000000     0.00000000     0.00000000
     50      2      Si          0.00000000     0.00000000     0.00000000
     51      2      Si          0.00000000     0.00000000     0.00000000
     52      2      Si          0.00000000     0.00000000     0.00000000
     53      2      Si          0.00000000     0.00000000     0.00000000
     54      2      Si          0.00000000     0.00000000     0.00000000
     55      2      Si          0.00000000     0.00000000     0.00000000
     56      2      Si          0.00000000     0.00000000     0.00000000
     57      2      Si          0.00000000     0.00000000     0.00000000
     58      2      Si          0.00000000     0.00000000     0.00000000
     59      2      Si          0.00000000     0.00000000     0.00000000
     60      2      Si          0.00000000     0.00000000     0.00000000
     61      2      Si          0.00000000     0.00000000     0.00000000
     62      2      Si          0.00000000     0.00000000     0.00000000
     63      2      Si          0.00000000     0.00000000     0.00000000
     64      2      Si          0.00000000     0.00000000     0.00000000
     65      2      Si          0.00000000     0.00000000     0.00000000
     66      2      Si          0.00000000     0.00000000     0.00000000
     67      2      Si          0.00000000     0.00000000     0.00000000
     68      2      Si          0.00000000     0.00000000     0.00000000
     69      2      Si          0.00000000     0.00000000     0.00000000
     70      2      Si          0.00000000     0.00000000     0.00000000
     71      2      Si          0.00000000     0.00000000     0.00000000
     72      2      Si          0.00000000     0.00000000     0.00000000
     73      2      Si          0.00000000     0.00000000     0.00000000
     74      2      Si          0.00000000     0.00000000     0.00000000
     75      2      Si          0.00000000     0.00000000     0.00000000
     76      2      Si          0.00000000     0.00000000     0.00000000
     77      2      Si          0.00000000     0.00000000     0.00000000
     78      2      Si          0.00000000     0.00000000     0.00000000
     79      2      Si          0.00000000     0.00000000     0.00000000
     80      2      Si          0.00000000     0.00000000     0.00000000
     81      2      Si          0.00000000     0.00000000     0.00000000
     82      2      Si          0.00000000     0.00000000     0.00000000
     83      2      Si          0.00000000     0.00000000     0.00000000
     84      2      Si          0.00000000     0.00000000     0.00000000
     85      2      Si          0.00000000     0.00000000     0.00000000
     86      2      Si          0.00000000     0.00000000     0.00000000
     87      2      Si          0.00000000     0.00000000     0.00000000
     88      2      Si          0.00000000     0.00000000     0.00000000
     89      2      Si          0.00000000     0.00000000     0.00000000
     90      2      Si          0.00000000     0.00000000     0.00000000
     91      2      Si          0.00000000     0.00000000     0.00000000
     92      2      Si          0.00000000     0.00000000     0.00000000
     93      2      Si          0.00000000     0.00000000     0.00000000
     94      2      Si          0.00000000     0.00000000     0.00000000
     95      2      Si          0.00000000     0.00000000     0.00000000
     96      2      Si          0.00000000     0.00000000     0.00000000
     97      2      Si          0.00000000     0.00000000     0.00000000
     98      2      Si          0.00000000     0.00000000     0.00000000
     99      2      Si          0.00000000     0.00000000     0.00000000
    100      2      Si          0.00000000     0.00000000     0.00000000
    101      2      Si          0.00000000     0.00000000     0.00000000
    102      2      Si          0.00000000     0.00000000     0.00000000
    103      2      Si          0.00000000     0.00000000     0.00000000
    104      2      Si          0.00000000     0.00000000     0.00000000
    105      2      Si          0.00000000     0.00000000     0.00000000
    106      2      Si          0.00000000     0.00000000     0.00000000
    107      2      Si          0.00000000     0.00000000     0.00000000
    108      2      Si          0.00000000     0.00000000     0.00000000
    109      2      Si          0.00000000     0.00000000     0.00000000
    110      2      Si          0.00000000     0.00000000     0.00000000
    111      2      Si          0.00000000     0.00000000     0.00000000
    112      2      Si          0.00000000     0.00000000     0.00000000
    113      2      Si          0.00000000     0.00000000     0.00000000
    114      2      Si          0.00000000     0.00000000     0.00000000
    115      2      Si          0.00000000     0.00000000     0.00000000
    116      2      Si          0.00000000     0.00000000     0.00000000
    117      2      Si          0.00000000     0.00000000     0.00000000
    118      2      Si          0.00000000     0.00000000     0.00000000
    119      2      Si          0.00000000     0.00000000     0.00000000
    120      2      Si          0.00000000     0.00000000     0.00000000
    121      2      Si          0.00000000     0.00000000     0.00000000
    122      2      Si          0.00000000     0.00000000     0.00000000
    123      2      Si          0.00000000     0.00000000     0.00000000
    124      2      Si          0.00000000     0.00000000     0.00000000
    125      2      Si          0.00000000     0.00000000     0.00000000
    126      2      Si          0.00000000     0.00000000     0.00000000
    127      2      Si          0.00000000     0.00000000     0.00000000
    128      2      Si          0.00000000     0.00000000     0.00000000
    129      2      Si          0.00000000     0.00000000     0.00000000
    130      2      Si          0.00000000     0.00000000     0.00000000
    131      2      Si          0.00000000     0.00000000     0.00000000
    132      2      Si          0.00000000     0.00000000     0.00000000
    133      2      Si          0.00000000     0.00000000     0.00000000
    134      2      Si          0.00000000     0.00000000     0.00000000
    135      2      Si          0.00000000     0.00000000     0.00000000
    136      2      Si          0.00000000     0.00000000     0.00000000
    137      2      Si          0.00000000     0.00000000     0.00000000
    138      2      Si          0.00000000     0.00000000     0.00000000
    139      2      Si          0.00000000     0.00000000     0.00000000
    140      2      Si          0.00000000     0.00000000     0.00000000
    141      2      Si          0.00000000     0.00000000     0.00000000
    142      2      Si          0.00000000     0.00000000     0.00000000
    143      2      Si          0.00000000     0.00000000     0.00000000
    144      2      Si          0.00000000     0.00000000     0.00000000
    145      2      Si          0.00000000     0.00000000     0.00000000
    146      2      Si          0.00000000     0.00000000     0.00000000
    147      2      Si          0.00000000     0.00000000     0.00000000
    148      2      Si          0.00000000     0.00000000     0.00000000
    149      2      Si          0.00000000     0.00000000     0.00000000
    150      2      Si          0.00000000     0.00000000     0.00000000
    151      2      Si          0.00000000     0.00000000     0.00000000
    152      2      Si          0.00000000     0.00000000     0.00000000
    153      2      Si          0.00000000     0.00000000     0.00000000
    154      2      Si          0.00000000     0.00000000     0.00000000
    155      2      Si          0.00000000     0.00000000     0.00000000
    156      2      Si          0.00000000     0.00000000     0.00000000
    157      2      Si          0.00000000     0.00000000     0.00000000
    158      2      Si          0.00000000     0.00000000     0.00000000
    159      2      Si          0.00000000     0.00000000     0.00000000
    160      2      Si          0.00000000     0.00000000     0.00000000
    161      2      Si          0.00000000     0.00000000     0.00000000
    162      2      Si          0.00000000     0.00000000     0.00000000
    163      2      Si          0.00000000     0.00000000     0.00000000
    164      2      Si          0.00000000     0.00000000     0.00000000
    165      2      Si          0.00000000     0.00000000     0.00000000
    166      2      Si          0.00000000     0.00000000     0.00000000
    167      2      Si          0.00000000     0.00000000     0.00000000
    168      2      Si          0.00000000     0.00000000     0.00000000
    169      2      Si          0.00000000     0.00000000     0.00000000
    170      2      Si          0.00000000     0.00000000     0.00000000
    171      2      Si          0.00000000     0.00000000     0.00000000
    172      2      Si          0.00000000     0.00000000     0.00000000
    173      2      Si          0.00000000     0.00000000     0.00000000
    174      2      Si          0.00000000     0.00000000     0.00000000
    175      2      Si          0.00000000     0.00000000     0.00000000
    176      2      Si          0.00000000     0.00000000     0.00000000
    177      2      Si          0.00000000     0.00000000     0.00000000
    178      2      Si          0.00000000     0.00000000     0.00000000
    179      2      Si          0.00000000     0.00000000     0.00000000
    180      2      Si          0.00000000     0.00000000     0.00000000
    181      2      Si          0.00000000     0.00000000     0.00000000
    182      2      Si          0.00000000     0.00000000     0.00000000
    183      2      Si          0.00000000     0.00000000     0.00000000
    184      2      Si          0.00000000     0.00000000     0.00000000
    185      2      Si          0.00000000     0.00000000     0.00000000
    186      2      Si          0.00000000     0.00000000     0.00000000
    187      2      Si          0.00000000     0.00000000     0.00000000
    188      2      Si          0.00000000     0.00000000     0.00000000
    189      2      Si          0.00000000     0.00000000     0.00000000
    190      2      Si          0.00000000     0.00000000     0.00000000
    191      2      Si          0.00000000     0.00000000     0.00000000
    192      3      O           0.00000000     0.00000000     0.00000000
    193      3      O           0.00000000     0.00000000     0.00000000
    194      3      O           0.00000000     0.00000000     0.00000000
    195      3      O           0.00000000     0.00000000     0.00000000
    196      3      O           0.00000000     0.00000000     0.00000000
    197      3      O           0.00000000     0.00000000     0.00000000
    198      3      O           0.00000000     0.00000000     0.00000000
    199      3      O           0.00000000     0.00000000     0.00000000
    200      3      O           0.00000000     0.00000000     0.00000000
    201      3      O           0.00000000     0.00000000     0.00000000
    202      3      O           0.00000000     0.00000000     0.00000000
    203      3      O           0.00000000     0.00000000     0.00000000
    204      3      O           0.00000000     0.00000000     0.00000000
    205      3      O           0.00000000     0.00000000     0.00000000
    206      3      O           0.00000000     0.00000000     0.00000000
    207      3      O           0.00000000     0.00000000     0.00000000
    208      3      O           0.00000000     0.00000000     0.00000000
    209      3      O           0.00000000     0.00000000     0.00000000
    210      3      O           0.00000000     0.00000000     0.00000000
    211      3      O           0.00000000     0.00000000     0.00000000
    212      3      O           0.00000000     0.00000000     0.00000000
    213      3      O           0.00000000     0.00000000     0.00000000
    214      3      O           0.00000000     0.00000000     0.00000000
    215      3      O           0.00000000     0.00000000     0.00000000
    216      3      O           0.00000000     0.00000000     0.00000000
    217      3      O           0.00000000     0.00000000     0.00000000
    218      3      O           0.00000000     0.00000000     0.00000000
    219      3      O           0.00000000     0.00000000     0.00000000
    220      3      O           0.00000000     0.00000000     0.00000000
    221      3      O           0.00000000     0.00000000     0.00000000
    222      3      O           0.00000000     0.00000000     0.00000000
    223      3      O           0.00000000     0.00000000     0.00000000
    224      3      O           0.00000000     0.00000000     0.00000000
    225      3      O           0.00000000     0.00000000     0.00000000
    226      3      O           0.00000000     0.00000000     0.00000000
    227      3      O           0.00000000     0.00000000     0.00000000
    228      3      O           0.00000000     0.00000000     0.00000000
    229      3      O           0.00000000     0.00000000     0.00000000
    230      3      O           0.00000000     0.00000000     0.00000000
    231      3      O           0.00000000     0.00000000     0.00000000
    232      3      O           0.00000000     0.00000000     0.00000000
    233      3      O           0.00000000     0.00000000     0.00000000
    234      3      O           0.00000000     0.00000000     0.00000000
    235      3      O           0.00000000     0.00000000     0.00000000
    236      3      O           0.00000000     0.00000000     0.00000000
    237      3      O           0.00000000     0.00000000     0.00000000
    238      3      O           0.00000000     0.00000000     0.00000000
    239      3      O           0.00000000     0.00000000     0.00000000
    240      3      O           0.00000000     0.00000000     0.00000000
    241      3      O           0.00000000     0.00000000     0.00000000
    242      3      O           0.00000000     0.00000000     0.00000000
    243      3      O           0.00000000     0.00000000     0.00000000
    244      3      O           0.00000000     0.00000000     0.00000000
    245      3      O           0.00000000     0.00000000     0.00000000
    246      3      O           0.00000000     0.00000000     0.00000000
    247      3      O           0.00000000     0.00000000     0.00000000
    248      3      O           0.00000000     0.00000000     0.00000000
    249      3      O           0.00000000     0.00000000     0.00000000
    250      3      O           0.00000000     0.00000000     0.00000000
    251      3      O           0.00000000     0.00000000     0.00000000
    252      3      O           0.00000000     0.00000000     0.00000000
    253      3      O           0.00000000     0.00000000     0.00000000
    254      3      O           0.00000000     0.00000000     0.00000000
    255      3      O           0.00000000     0.00000000     0.00000000
    256      3      O           0.00000000     0.00000000     0.00000000
    257      3      O           0.00000000     0.00000000     0.00000000
    258      3      O           0.00000000     0.00000000     0.00000000
    259      3      O           0.00000000     0.00000000     0.00000000
    260      3      O           0.00000000     0.00000000     0.00000000
    261      3      O           0.00000000     0.00000000     0.00000000
    262      3      O           0.00000000     0.00000000     0.00000000
    263      3      O           0.00000000     0.00000000     0.00000000
    264      3      O           0.00000000     0.00000000     0.00000000
    265      3      O           0.00000000     0.00000000     0.00000000
    266      3      O           0.00000000     0.00000000     0.00000000
    267      3      O           0.00000000     0.00000000     0.00000000
    268      3      O           0.00000000     0.00000000     0.00000000
    269      3      O           0.00000000     0.00000000     0.00000000
    270      3      O           0.00000000     0.00000000     0.00000000
    271      3      O           0.00000000     0.00000000     0.00000000
    272      3      O           0.00000000     0.00000000     0.00000000
    273      3      O           0.00000000     0.00000000     0.00000000
    274      3      O           0.00000000     0.00000000     0.00000000
    275      3      O           0.00000000     0.00000000     0.00000000
    276      3      O           0.00000000     0.00000000     0.00000000
    277      3      O           0.00000000     0.00000000     0.00000000
    278      3      O           0.00000000     0.00000000     0.00000000
    279      3      O           0.00000000     0.00000000     0.00000000
    280      3      O           0.00000000     0.00000000     0.00000000
    281      3      O           0.00000000     0.00000000     0.00000000
    282      3      O           0.00000000     0.00000000     0.00000000
    283      3      O           0.00000000     0.00000000     0.00000000
    284      3      O           0.00000000     0.00000000     0.00000000
    285      3      O           0.00000000     0.00000000     0.00000000
    286      3      O           0.00000000     0.00000000     0.00000000
    287      3      O           0.00000000     0.00000000     0.00000000
    288      3      O           0.00000000     0.00000000     0.00000000
    289      3      O           0.00000000     0.00000000     0.00000000
    290      3      O           0.00000000     0.00000000     0.00000000
    291      3      O           0.00000000     0.00000000     0.00000000
    292      3      O           0.00000000     0.00000000     0.00000000
    293      3      O           0.00000000     0.00000000     0.00000000
    294      3      O           0.00000000     0.00000000     0.00000000
    295      3      O           0.00000000     0.00000000     0.00000000
    296      3      O           0.00000000     0.00000000     0.00000000
    297      3      O           0.00000000     0.00000000     0.00000000
    298      3      O           0.00000000     0.00000000     0.00000000
    299      3      O           0.00000000     0.00000000     0.00000000
    300      3      O           0.00000000     0.00000000     0.00000000
    301      3      O           0.00000000     0.00000000     0.00000000
    302      3      O           0.00000000     0.00000000     0.00000000
    303      3      O           0.00000000     0.00000000     0.00000000
    304      3      O           0.00000000     0.00000000     0.00000000
    305      3      O           0.00000000     0.00000000     0.00000000
    306      3      O           0.00000000     0.00000000     0.00000000
    307      3      O           0.00000000     0.00000000     0.00000000
    308      3      O           0.00000000     0.00000000     0.00000000
    309      3      O           0.00000000     0.00000000     0.00000000
    310      3      O           0.00000000     0.00000000     0.00000000
    311      3      O           0.00000000     0.00000000     0.00000000
    312      3      O           0.00000000     0.00000000     0.00000000
    313      3      O           0.00000000     0.00000000     0.00000000
    314      3      O           0.00000000     0.00000000     0.00000000
    315      3      O           0.00000000     0.00000000     0.00000000
    316      3      O           0.00000000     0.00000000     0.00000000
    317      3      O           0.00000000     0.00000000     0.00000000
    318      3      O           0.00000000     0.00000000     0.00000000
    319      3      O           0.00000000     0.00000000     0.00000000
    320      3      O           0.00000000     0.00000000     0.00000000
    321      3      O           0.00000000     0.00000000     0.00000000
    322      3      O           0.00000000     0.00000000     0.00000000
    323      3      O           0.00000000     0.00000000     0.00000000
    324      3      O           0.00000000     0.00000000     0.00000000
    325      3      O           0.00000000     0.00000000     0.00000000
    326      3      O           0.00000000     0.00000000     0.00000000
    327      3      O           0.00000000     0.00000000     0.00000000
    328      3      O           0.00000000     0.00000000     0.00000000
    329      3      O           0.00000000     0.00000000     0.00000000
    330      3      O           0.00000000     0.00000000     0.00000000
    331      3      O           0.00000000     0.00000000     0.00000000
    332      3      O           0.00000000     0.00000000     0.00000000
    333      3      O           0.00000000     0.00000000     0.00000000
    334      3      O           0.00000000     0.00000000     0.00000000
    335      3      O           0.00000000     0.00000000     0.00000000
    336      3      O           0.00000000     0.00000000     0.00000000
    337      3      O           0.00000000     0.00000000     0.00000000
    338      3      O           0.00000000     0.00000000     0.00000000
    339      3      O           0.00000000     0.00000000     0.00000000
    340      3      O           0.00000000     0.00000000     0.00000000
    341      3      O           0.00000000     0.00000000     0.00000000
    342      3      O           0.00000000     0.00000000     0.00000000
    343      3      O           0.00000000     0.00000000     0.00000000
    344      3      O           0.00000000     0.00000000     0.00000000
    345      3      O           0.00000000     0.00000000     0.00000000
    346      3      O           0.00000000     0.00000000     0.00000000
    347      3      O           0.00000000     0.00000000     0.00000000
    348      3      O           0.00000000     0.00000000     0.00000000
    349      3      O           0.00000000     0.00000000     0.00000000
    350      3      O           0.00000000     0.00000000     0.00000000
    351      3      O           0.00000000     0.00000000     0.00000000
    352      3      O           0.00000000     0.00000000     0.00000000
    353      3      O           0.00000000     0.00000000     0.00000000
    354      3      O           0.00000000     0.00000000     0.00000000
    355      3      O           0.00000000     0.00000000     0.00000000
    356      3      O           0.00000000     0.00000000     0.00000000
    357      3      O           0.00000000     0.00000000     0.00000000
    358      3      O           0.00000000     0.00000000     0.00000000
    359      3      O           0.00000000     0.00000000     0.00000000
    360      3      O           0.00000000     0.00000000     0.00000000
    361      3      O           0.00000000     0.00000000     0.00000000
    362      3      O           0.00000000     0.00000000     0.00000000
    363      3      O           0.00000000     0.00000000     0.00000000
    364      3      O           0.00000000     0.00000000     0.00000000
[...]
 flops  2038 x   288 x   144        4507786266624       0.0%    100.0%      0.0%
 flops  2028 x   288 x   667        4628099773440       0.0%    100.0%      0.0%
 flops  2038 x   272 x   160        4730392995840       0.0%    100.0%      0.0%
 flops  2028 x   288 x   683        4739118658560       0.0%    100.0%      0.0%
 flops  2028 x   288 x   160        4984075100160       0.0%    100.0%      0.0%
 flops   416 x   256 x   675        5682924748800       0.0%    100.0%      0.0%
 flops    13 x    32 x     5        6281867080320       0.0%    100.0%      0.0%
 flops     5 x    32 x    13        6281867080320       0.0%    100.0%      0.0%
 flops  2028 x   256 x   128        6300855435264       0.0%    100.0%      0.0%
 flops   416 x   288 x   667        6317518012416       0.0%    100.0%      0.0%
 flops   416 x   288 x   683        6469062672384       0.0%    100.0%      0.0%
 flops  2038 x   272 x   675        6667830576000       0.0%    100.0%      0.0%
 flops  2028 x   288 x   675        7025413824000       0.0%    100.0%      0.0%
 flops   416 x   288 x   128        7351434215424       0.0%    100.0%      0.0%
 flops  2038 x   256 x   667        8268303605760       0.0%    100.0%      0.0%
 flops  2038 x   256 x   683        8466643722240       0.0%    100.0%      0.0%
 flops    13 x    13 x   160        8708705903040       0.0%    100.0%      0.0%
 flops  2038 x   256 x   160        8904269168640       0.0%    100.0%      0.0%
 flops   416 x   288 x   675        9589935513600       0.0%    100.0%      0.0%
 flops  2038 x   272 x   128       10091505057792       0.0%    100.0%      0.0%
 flops  2028 x   288 x   128       10632693547008       0.0%    100.0%      0.0%
 flops  2038 x   256 x   675       12551210496000       0.0%    100.0%      0.0%
 flops  2038 x   288 x   667       13952762334720       0.0%    100.0%      0.0%
 flops  2038 x   288 x   683       14287461281280       0.0%    100.0%      0.0%
 flops  2038 x   288 x   160       15025954222080       0.0%    100.0%      0.0%
 flops    13 x    13 x   128       18578572593152       0.0%    100.0%      0.0%
 flops  2038 x   256 x   128       18995774226432       0.0%    100.0%      0.0%
 flops  2038 x   288 x   675       21180167712000       0.0%    100.0%      0.0%
 flops  2038 x   288 x   128       32055369007104       0.0%    100.0%      0.0%
 flops    13 x    32 x    13      117567410752896       0.0%    100.0%      0.0%
 flops inhomo. stacks             133003410675840     100.0%      0.0%      0.0%
 flops total                       642.824255E+12      20.7%     79.3%      0.0%
 flops max/rank                     28.144767E+12      20.7%     79.3%      0.0%
 matmuls inhomo. stacks                    382320     100.0%      0.0%      0.0%
 matmuls total                        15411844480       0.0%    100.0%      0.0%
 number of processed stacks              20962656       1.8%     98.2%      0.0%
 average stack size                                     1.0     748.8       0.0
 marketing flops                     1.089297E+15
 -------------------------------------------------------------------------------
 # multiplications                          12382
 max memory usage/rank             984.416256E+06
 # max total images/rank                        3
 # max 3D layers                                1
 # MPI messages exchanged                 5646192
 MPI messages size (bytes):
  total size                        10.240185E+12
  min size                           0.000000E+00
  max size                          11.266064E+06
  average size                       1.813644E+06
 MPI breakdown and total messages size (bytes):
             size <=      128               35616                        0
       128 < size <=     8192                   0                        0
      8192 < size <=    32768                1344                 44040192
     32768 < size <=   131072                 672                 26492928
    131072 < size <=  4194304             5370960            7615598105264
   4194304 < size <= 16777216              237600            2625169694400
  16777216 < size                               0                        0
 -------------------------------------------------------------------------------

 *** WARNING in dbcsr_mm.F:294 :: Using a non-square number of MPI ranks ***
 *** might lead to poor performance. Used ranks: 24 Suggested: 25 49     ***

 -------------------------------------------------------------------------------
 -                                                                             -
 -                      DBCSR MESSAGE PASSING PERFORMANCE                      -
 -                                                                             -
 -------------------------------------------------------------------------------
 ROUTINE             CALLS      AVE VOLUME [Bytes]
 MP_Bcast              124                     12.
 MP_Allreduce        62410                    114.
 MP_Alltoall         56711                 811429.
 MP_ISend           569960                 819850.
 MP_IRecv           560892                 825798.
 -------------------------------------------------------------------------------

 -------------------------------------------------------------------------------
 -                                                                             -
 -                                GRID STATISTICS                              -
 -                                                                             -
 -------------------------------------------------------------------------------
 LP    KERNEL             BACKEND                              COUNT     PERCENT
 4     collocate ortho    REF                              256190560      49.76%
 4     integrate ortho    REF                              128095280      24.88%
 3     collocate ortho    REF                               56196140      10.91%
 3     integrate ortho    REF                               28098070       5.46%
 7     integrate ortho    REF                               15756729       3.06%
 2     collocate ortho    REF                               14639128       2.84%
 2     integrate ortho    REF                                7319564       1.42%
 6     integrate ortho    REF                                3472279       0.67%
 5     integrate ortho    REF                                1688347       0.33%
 5     collocate ortho    REF                                1574588       0.31%
 0     collocate general  REF                                 872520       0.17%
 3     integrate general  REF                                 856656       0.17%
 8     integrate ortho    REF                                  96871       0.02%
 6     collocate ortho    REF                                  31608       0.01%
 9     integrate ortho    REF                                   1944       0.00%
 -------------------------------------------------------------------------------

 MEMORY| Estimated peak process memory [MiB]                                 939

 -------------------------------------------------------------------------------
 -                                                                             -
 -                         MESSAGE PASSING PERFORMANCE                         -
 -                                                                             -
 -------------------------------------------------------------------------------

 ROUTINE             CALLS      AVE VOLUME [Bytes]
 MP_Group                5
 MP_Bcast            35972                 235205.
 MP_Allreduce        97018                   1246.
 MP_Sync               737
 MP_Alltoall         15189               33851038.
 MP_SendRecv          4968                  16211.
 MP_ISendRecv        94599                 127093.
 MP_Wait            187093
 MP_ISend            82570                 806195.
 MP_IRecv            82570                 806358.
 MP_Recv              7047                1384713.
 -------------------------------------------------------------------------------


 -------------------------------------------------------------------------------
 -                                                                             -
 -                           R E F E R E N C E S                               -
 -                                                                             -
 -------------------------------------------------------------------------------
 
 CP2K version 9.1, the CP2K developers group (2021).
 CP2K is freely available from https://www.cp2k.org/ .

 Kuehne,Thomas D.; Iannuzzi,Marcella; Del Ben,Mauro;
 Rybkin,Vladimir V.; Seewald,Patrick; Stein,Frederick; Laino,Teodoro;
 Khaliullin,Rustam Z.; Schuett,Ole; Schiffmann,Florian; Golze,Dorothea;
 Wilhelm,Jan; Chulkov,Sergey; Bani-Hashemian,Mohammad Hossein;
 Weber,Valery; Borstnik,Urban; Taillefumier,Mathieu;
 Jakobovits,Alice Shoshana; Lazzaro,Alfio; Pabst,Hans; Mueller,Tiziano;
 Schade,Robert; Guidon,Manuel; Andermatt,Samuel; Holmberg,Nico;
 Schenter,Gregory K.; Hehn,Anna; Bussy,Augustin; Belleflamme,Fabian;
 Tabacchi,Gloria; Gloess,Andreas; Lass,Michael; Bethune,Iain;
 Mundy,Christopher J.; Plessl,Christian; Watkins,Matt;
 VandeVondele,Joost; Krack,Matthias; Hutter,Juerg. 
 The Journal of Chemical Physics, 152 (19), (2020). 
 CP2K: An electronic structure and molecular dynamics software package -
 Quickstep: Efficient and accurate electronic structure calculations.
 https://doi.org/10.1063/5.0007045

 Goerigk, Lars; Hansen, Andreas; Bauer, Christoph; Ehrlich, Stephan;
 Najibi, Asim; Grimme, Stefan. , 19 (48), (2017). 
 A look at the density functional theory zoo with the advanced GMTKN55 database
 for general main group thermochemistry, kinetics and noncovalent interactions.
 https://doi.org/10.1039/C7CP04913G

 Schuett, Ole; Messmer, Peter; Hutter, Juerg; VandeVondele, Joost. 
 Electronic Structure Calculations on Graphics Processing Units, John
 Wiley & Sons, Ltd, 173-190 (2016). 
 GPU-Accelerated Sparse Matrix-Matrix Multiplication for
 Linear Scaling Density Functional Theory.
 https://doi.org/10.1002/9781118670712.ch8

 Heinecke, A; Henry, G; Hutchinson, M; Pabst, H. 
 Proceedings of Intl. Supercomputing Conference, 981-991 (2016). 
 LIBXSMM: Accelerating Small Matrix Multiplications
 by Runtime Code Generation.
 https://doi.org/10.1109/SC.2016.83

 Borstnik, U; VandeVondele, J; Weber, V; Hutter, J. 
 PARALLEL COMPUTING, 40 (5-6), 47-58 (2014). 
 Sparse matrix multiplication: The distributed block-compressed sparse
 row library.
 https://doi.org/10.1016/j.parco.2014.03.012

 Hutter, J; Iannuzzi, M; Schiffmann, F; VandeVondele, J. 
 WIREs Comput Mol Sci., 4 (1), 15-25 (2014). 
 CP2K: atomistic simulations of condensed matter systems.
 https://doi.org/10.1002/wcms.1159

 Grimme, S; Ehrlich, S; Goerigk, L. 
 JOURNAL OF COMPUTATIONAL CHEMISTRY, 32, 1456 (2011). 
 Effect of the damping function in dispersion corrected density functional theory.
 https://doi.org/10.1002/jcc.21759

 Grimme, S; Antony, J; Ehrlich, S; Krieg, H. 
 JOURNAL OF CHEMICAL PHYSICS, 132 (15), 154104 (2010). 
 A consistent and accurate ab initio parametrization of density
 functional dispersion correction (DFT-D) for the 94 elements H-Pu.
 https://doi.org/10.1063/1.3382344

 VandeVondele, J; Hutter, J. 
 JOURNAL OF CHEMICAL PHYSICS, 127 (11), 114105 (2007). 
 Gaussian basis sets for accurate calculations on molecular systems in
 gas and condensed phases.
 https://doi.org/10.1063/1.2770708

 Kuhne, TD; Krack, M; Mohamed, FR; Parrinello, M. 
 PHYSICAL REVIEW LETTERS, 98 (6), 066401 (2007). 
 Efficient and accurate Car-Parrinello-like approach to
 Born-Oppenheimer molecular dynamics.
 https://doi.org/10.1103/PhysRevLett.98.066401

 Krack, M. 
 THEORETICAL CHEMISTRY ACCOUNTS, 114 (1-3), 145-152 (2005). 
 Pseudopotentials for H to Kr optimized for gradient-corrected
 exchange-correlation functionals.
 https://doi.org/10.1007/s00214-005-0655-y

 VandeVondele, J; Krack, M; Mohamed, F; Parrinello, M; Chassaing, T;
 Hutter, J. COMPUTER PHYSICS COMMUNICATIONS, 167 (2), 103-128 (2005). 
 QUICKSTEP: Fast and accurate density functional calculations using a
 mixed Gaussian and plane waves approach.
 https://doi.org/10.1016/j.cpc.2004.12.014

 Frigo, M; Johnson, SG. 
 PROCEEDINGS OF THE IEEE, 93 (2), 216-231 (2005). 
 The design and implementation of FFTW3.
 https://doi.org/10.1109/JPROC.2004.840301

 Kolafa, J. 
 JOURNAL OF COMPUTATIONAL CHEMISTRY, 25 (3), 335-342 (2004). 
 Time-reversible always stable predictor-corrector method for
 molecular dynamics of polarizable molecules.
 https://doi.org/10.1002/jcc.10385

 VandeVondele, J; Hutter, J. 
 JOURNAL OF CHEMICAL PHYSICS, 118 (10), 4365-4369 (2003). 
 An efficient orbital transformation method for electronic structure
 calculations.
 https://doi.org/10.1063/1.1543154

 Hartwigsen, C; Goedecker, S; Hutter, J. 
 PHYSICAL REVIEW B, 58 (7), 3641-3662 (1998). 
 Relativistic separable dual-space Gaussian pseudopotentials from H to Rn.
 https://doi.org/10.1103/PhysRevB.58.3641

 Lippert, G; Hutter, J; Parrinello, M. 
 MOLECULAR PHYSICS, 92 (3), 477-487 (1997). 
 A hybrid Gaussian and plane wave density functional scheme.
 https://doi.org/10.1080/002689797170220

 Perdew, JP; Burke, K; Ernzerhof, M. 
 PHYSICAL REVIEW LETTERS, 77 (18), 3865-3868 (1996). 
 Generalized gradient approximation made simple.
 https://doi.org/10.1103/PhysRevLett.77.3865

 Goedecker, S; Teter, M; Hutter, J. 
 PHYSICAL REVIEW B, 54 (3), 1703-1710 (1996). 
 Separable dual-space Gaussian pseudopotentials.
 https://doi.org/10.1103/PhysRevB.54.1703


 -------------------------------------------------------------------------------
 -                                                                             -
 -                                T I M I N G                                  -
 -                                                                             -
 -------------------------------------------------------------------------------
 SUBROUTINE                       CALLS  ASD         SELF TIME        TOTAL TIME
                                MAXIMUM       AVERAGE  MAXIMUM  AVERAGE  MAXIMUM
 CP2K                                 1  1.0    0.031    0.035 9755.695 9755.755
 cp_geo_opt                           1  2.0    0.001    0.001 9754.163 9754.260
 geoopt_bfgs                          1  3.0    0.259    0.304 9754.162 9754.259
 cp_eval_at                          55  4.0    0.012    0.091 9715.037 9715.111
 qs_forces                           54  5.0    0.018    0.019 9664.680 9664.739
 qs_energies                         55  6.0    0.006    0.008 9058.893 9059.176
 scf_env_do_scf                      55  7.0    0.003    0.006 8661.235 8661.349
 scf_env_do_scf_inner_loop          823  8.0    0.019    0.064 6573.341 6585.359
 rebuild_ks_matrix                  877  9.8    0.005    0.005 3397.732 3399.650
 qs_ks_build_kohn_sham_matrix       877 10.8    0.126    0.139 3397.727 3399.646
 qs_ks_update_qs_env                879  9.0    0.007    0.007 2885.149 2886.854
 dbcsr_multiply_generic           12382 13.7    0.961    1.039 2322.822 2334.358
 qs_scf_new_mos                     823  9.0    0.005    0.007 2176.528 2182.165
 qs_scf_loop_do_ot                  823 10.0    0.006    0.008 2176.523 2182.160
 init_scf_loop                       56  8.0    0.003    0.005 2074.360 2074.417
 ot_scf_mini                        823 11.0    0.038    0.048 2026.889 2029.001
 multiply_cannon                  12382 14.7    1.310    1.507 1969.224 2001.149
 multiply_cannon_loop             12382 15.7    1.996    2.299 1903.182 1941.109
 qs_rho_update_rho                  878  9.1    0.005    0.005 1924.263 1928.774
 calculate_rho_elec                 878 10.1    3.835    3.969 1924.259 1928.769
 sum_up_and_integrate               493 11.7    2.380    2.470 1754.477 1754.926
 integrate_v_rspace                 493 12.7    0.020    0.025 1752.095 1752.573
 prepare_preconditioner              56  9.0    0.001    0.001 1742.811 1743.390
 make_preconditioner                 56 10.0    0.002    0.002 1683.766 1684.379
 make_full_all                       56 11.0    0.095    0.121 1632.964 1634.189
 multiply_cannon_multrec         148584 16.7 1520.207 1615.065 1520.406 1615.305
 grid_integrate_task_list           493 13.7 1494.909 1528.188 1494.909 1528.188
 grid_collocate_task_list           878 11.1 1405.574 1467.940 1405.574 1467.940
 qs_vxc_create                      877 11.8    0.018    0.021 1339.579 1340.483
 pw_transfer                      14638 13.3    1.172    1.286 1254.732 1272.725
 fft_wrap_pw1pw2                  12884 14.3    0.175    0.191 1235.934 1254.034
 ot_mini                            823 12.0    0.007    0.009 1209.488 1212.160
 fft_wrap_pw1pw2_180               7400 15.6  104.514  106.190 1193.928 1209.689
 cp_fm_syevd                        732 13.6    0.014    0.017 1182.399 1183.383
 cp_fm_syevd_base                   732 14.6 1173.939 1174.112 1173.939 1174.112
 xc_rho_set_and_dset_create         877 13.8    7.142    7.257  940.072  948.327
 fft3d_ps                         12884 16.3  524.884  534.265  928.813  948.215
 xc_vxc_pw_create                   493 12.7   34.195   37.474  924.045  924.952
 apply_preconditioner_dbcsr         495 14.0    0.001    0.002  707.129  712.773
 apply_all                          495 15.0    0.853    0.896  707.128  712.772
 ot_new_cg_direction                439 13.0    0.009    0.011  637.557  637.570
 mp_waitall_1                    797915 17.5  472.101  573.316  472.101  573.316
 qs_ot_get_derivative               439 13.0    0.006    0.007  567.756  569.741
 density_rs2pw                      878 11.1    0.063    0.076  497.369  527.939
 qs_ks_update_qs_env_forces          54  6.0    0.000    0.000  515.873  516.080
 multiply_cannon_metrocomm3      148584 16.7    0.511    0.600  366.929  476.489
 xc_functional_eval                 877 14.8    0.013    0.017  430.063  438.548
 pbe_lda_eval                       877 15.8  430.050  438.533  430.050  438.533
 xc_exc_calc                        384 13.0    1.625    1.637  415.516  415.536
 qs_ot_get_p                        879 11.9    0.007    0.008  333.936  338.554
 rs_pw_transfer                    6964 13.0    0.098    0.119  296.265  331.770
 init_scf_run                        55  7.0    0.002    0.004  301.932  301.950
 scf_env_initial_rho_setup           55  8.0    0.001    0.002  301.931  301.949
 wfi_extrapolate                     55  9.0    0.008    0.010  297.144  297.157
 cp_gemm                            910 10.2    0.003    0.004  285.524  287.539
 cp_gemm_fm_gemm                    910 11.2    0.003    0.004  285.521  287.536
 cp_fm_gemm                         910 12.2  285.518  287.532  285.518  287.532
 x_to_yz                           6467 18.1  194.563  197.702  261.206  266.085
 qs_ot_get_orbitals                 823 12.0    0.006    0.009  262.674  264.310
 make_m2s                         24764 14.7    0.929    1.029  259.748  262.715
 qs_ot_get_derivative_diag          254 14.0    0.009    0.011  221.249  222.627
 cp_fm_cholesky_reduce               56 12.0  220.815  221.241  220.815  221.241
 potential_pw2rs                    493 13.7    0.180    0.253  209.174  209.790
 -------------------------------------------------------------------------------

 The number of warnings for this run is : 2
 
 -------------------------------------------------------------------------------
  **** **** ******  **  PROGRAM ENDED AT                 2022-09-04 20:31:24.499
 ***** ** ***  *** **   PROGRAM RAN ON             node1078.palmetto.clemson.edu
 **    ****   ******    PROGRAM RAN BY                                   xiutinc
 ***** **    ** ** **   PROGRAM PROCESS ID                               4186750
  **** **  *******  **  PROGRAM STOPPED IN    /scratch1/xiutinc/CP2K-97000.pbs02
