 DBCSR| CPU Multiplication driver                                           XSMM
 DBCSR| Multrec recursion limit                                              512
 DBCSR| Multiplication stack size                                           1000
 DBCSR| Maximum elements for images                                    UNLIMITED
 DBCSR| Multiplicative factor virtual images                                   1
 DBCSR| Use multiplication densification                                       T
 DBCSR| Multiplication size stacks                                             3
 DBCSR| Use memory pool for CPU allocation                                     F
 DBCSR| Number of 3D layers                                               SINGLE
 DBCSR| Use MPI memory allocation                                              F
 DBCSR| Use RMA algorithm                                                      F
 DBCSR| Use Communication thread                                               T
 DBCSR| Communication thread load                                             87
 DBCSR| MPI: My node id                                                        0
 DBCSR| MPI: Number of nodes                                                  24
 DBCSR| OMP: Current number of threads                                         1
 DBCSR| OMP: Max number of threads                                             1
 DBCSR| Split modifier for TAS multiplication algorithm                  1.0E+00


  **** **** ******  **  PROGRAM STARTED AT               2022-09-04 17:48:35.825
 ***** ** ***  *** **   PROGRAM STARTED ON         node1036.palmetto.clemson.edu
 **    ****   ******    PROGRAM STARTED BY                               xiutinc
 ***** **    ** ** **   PROGRAM PROCESS ID                               3870323
  **** **  *******  **  PROGRAM STARTED IN    /scratch1/xiutinc/CP2K-96994.pbs02

 CP2K| version string:                                          CP2K version 9.1
 CP2K| source code revision number:                                  git:d8d7100
 CP2K| cp2kflags: omp libint fftw3 libxc parallel mpi3 scalapack xsmm           
 CP2K| is freely available from                            https://www.cp2k.org/
 CP2K| Program compiled at                          Mon Aug  8 12:17:03 EDT 2022
 CP2K| Program compiled on                         node0352.palmetto.clemson.edu
 CP2K| Program compiled for                           linux-rocky8-ivybridge-gcc
 CP2K| Data directory path    /software/spackages/linux-rocky8-ivybridge/gcc-9.5
 CP2K| Input file name                                             intE02_aq.inp

 GLOBAL| Force Environment number                                              1
 GLOBAL| Basis set file name                                          BASIS_file
 GLOBAL| Potential file name                                     POTENTIALS_file
 GLOBAL| MM Potential file name                                     MM_POTENTIAL
 GLOBAL| Coordinate file name                                    ./intE02_aq.xyz
 GLOBAL| Method name                                                        CP2K
 GLOBAL| Project name                                                  intE02_aq
 GLOBAL| Run type                                                        GEO_OPT
 GLOBAL| FFT library                                                       FFTW3
 GLOBAL| Diagonalization library                                       ScaLAPACK
 GLOBAL| Orthonormality check for eigenvectors                          DISABLED
 GLOBAL| Matrix multiplication library                                 ScaLAPACK
 GLOBAL| All-to-all communication in single precision                          F
 GLOBAL| FFTs using library dependent lengths                                  F
 GLOBAL| Grid backend                                                       AUTO
 GLOBAL| Global print level                                                  LOW
 GLOBAL| MPI I/O enabled                                                       T
 GLOBAL| Total number of message passing processes                            24
 GLOBAL| Number of threads for this process                                    1
 GLOBAL| This output is from process                                           0
 GLOBAL| Stack size for threads created by OpenMP (OMP_STACKSIZE)        default
 GLOBAL| CPU model name                Intel(R) Xeon(R) CPU E5-2680 v3 @ 2.50GHz
 GLOBAL| CPUID                                                              1002
 GLOBAL| Compiled for CPUID                                                 1001

 *** HINT in environment.F:869 :: The compiler target flags (x86_avx) used ***
 *** to build this binary cannot exploit all extensions of this CPU model  ***
 *** (x86_avx2). Consider compiler target flags as part of FCFLAGS and     ***
 *** CFLAGS (ARCH file).                                                   ***


 MEMORY| system memory details [Kb]
 MEMORY|                        rank 0           min           max       average
 MEMORY| MemTotal            131294764     131294764     131294764     131294764
 MEMORY| MemFree             122615032     122615032     122615032     122615032
 MEMORY| Buffers                  3504          3504          3504          3504
 MEMORY| Cached                3219564       3219564       3219564       3219564
 MEMORY| Slab                   665380        665380        665380        665380
 MEMORY| SReclaimable           300032        300032        300032        300032
 MEMORY| MemLikelyFree       126138132     126138132     126138132     126138132


 *******************************************************************************
 *******************************************************************************
 **                                                                           **
 **     #####                         ##              ##                      **
 **    ##   ##            ##          ##              ##                      **
 **   ##     ##                       ##            ######                    **
 **   ##     ##  ##   ##  ##   #####  ##  ##   ####   ##    #####    #####    **
 **   ##     ##  ##   ##  ##  ##      ## ##   ##      ##   ##   ##  ##   ##   **
 **   ##  ## ##  ##   ##  ##  ##      ####     ###    ##   ######   ######    **
 **    ##  ###   ##   ##  ##  ##      ## ##      ##   ##   ##       ##        **
 **     #######   #####   ##   #####  ##  ##  ####    ##    #####   ##        **
 **           ##                                                    ##        **
 **                                                                           **
 **                                                ... make the atoms dance   **
 **                                                                           **
 **            Copyright (C) by CP2K developers group (2000-2021)             **
 **                      J. Chem. Phys. 152, 194103 (2020)                    **
 **                                                                           **
 *******************************************************************************


 TOTAL NUMBERS AND MAXIMUM NUMBERS

  Total number of            - Atomic kinds:                                   5
                             - Atoms:                                        664
                             - Shell sets:                                   664
                             - Shells:                                      3203
                             - Primitive Cartesian functions:               3131
                             - Cartesian basis functions:                   8773
                             - Spherical basis functions:                   8165

  Maximum angular momentum of- Orbital basis functions:                        3
                             - Local part of the GTH pseudopotential:          2
                             - Non-local part of the GTH pseudopotential:      3


 SCF PARAMETERS         Density guess:                                   RESTART
                        --------------------------------------------------------
                        max_scf:                                             500
                        max_scf_history:                                       0
                        max_diis:                                              4
                        --------------------------------------------------------
                        eps_scf:                                        1.00E-06
                        eps_scf_history:                                0.00E+00
                        eps_diis:                                       1.00E-01
                        eps_eigval:                                     1.00E-05
                        --------------------------------------------------------
                        level_shift [a.u.]:                                 0.00
                        --------------------------------------------------------
                        Outer loop SCF in use 
                        No variables optimised in outer loop
                        eps_scf                                         1.00E-06
                        max_scf                                               50
                        No outer loop optimization
                        step_size                                       5.00E-01

 BFGS| Use rational function optimization for step estimation:                NO
 BFGS| Use model Hessian for initial guess:                                  YES
 BFGS| Restart Hessian:                                                       NO
 BFGS| Trust radius:                                                       0.472

 *******************************************************************************
 ***                     STARTING GEOMETRY OPTIMIZATION                      ***
 ***                                   BFGS                                  ***
 *******************************************************************************

 Number of electrons:                                                       3304
 Number of occupied orbitals:                                               1652
 Number of molecular orbitals:                                              1652

 Number of orbital functions:                                               8165
 Number of independent orbital functions:                                   8165

 Extrapolation method: initial_guess

 *** WARNING in qs_initial_guess.F:309 :: User requested to restart the   ***
 *** wavefunction from the file named: intE02_aq-RESTART.wfn. This file   ***
 *** does not exist. Please check the existence of the file or change     ***
 *** properly the value of the keyword WFN_RESTART_FILE_NAME. Calculation ***
 *** continues using ATOMIC GUESS.                                        ***



 SCF WAVEFUNCTION OPTIMIZATION

  ----------------------------------- OT ---------------------------------------
  Minimizer      : CG                  : conjugate gradient
  Preconditioner : FULL_ALL            : diagonalization, state selective
  Precond_solver : DEFAULT
  Line search    : 2PNT                : 2 energies, one gradient
  stepsize       :    0.15000000                  energy_gap     :    0.00100000
  eps_taylor     :   0.10000E-15                  max_taylor     :             4
  ----------------------------------- OT ---------------------------------------

  Step     Update method      Time    Convergence         Total energy    Change
  ------------------------------------------------------------------------------
     1 OT CG       0.15E+00   41.8     0.01671740     -7229.0737443422 -7.23E+03
     2 OT LS       0.60E-01    4.6                    -7086.6123071658
     3 OT CG       0.60E-01   11.5     0.08265057     -7102.9069997429  1.26E+02
     4 OT LS       0.27E-01    4.6                    -6571.8901962409
     5 OT CG       0.27E-01   11.5     0.14038965     -6678.3366626798  4.25E+02
     6 OT LS       0.14E-01    4.9                    -6890.1311103722
     7 OT CG       0.14E-01   13.0     0.06308471     -7064.0215777319 -3.86E+02
     8 OT LS       0.84E-02    4.7                    -7173.3819551330
     9 OT CG       0.84E-02   11.5     0.01673456     -7206.0588769630 -1.42E+02
    10 OT LS       0.20E-01    4.6                    -7227.9939458233
    11 OT CG       0.20E-01   11.5     0.01737217     -7236.1051184242 -3.00E+01
    12 OT LS       0.26E-01    4.6                    -7278.4001135715
    13 OT CG       0.26E-01   11.5     0.01442294     -7283.2776083210 -4.72E+01
    14 OT LS       0.15E-01    4.8                    -7293.8694426164
    15 OT CG       0.15E-01   11.5     0.01175772     -7302.5069632647 -1.92E+01
    16 OT LS       0.39E-01    4.6                    -7324.3073659201
    17 OT CG       0.39E-01   11.5     0.01518409     -7330.0549495924 -2.75E+01
    18 OT LS       0.48E-02    4.6                    -7152.5459258836
    19 OT CG       0.48E-02   11.5     0.01600106     -7335.3541648759 -5.30E+00
    20 OT LS       0.93E-02    4.6                    -7347.8023655181
    21 OT CG       0.93E-02   11.5     0.00627950     -7352.4927910461 -1.71E+01
    22 OT LS       0.37E-01    4.6                    -7357.1360674448
    23 OT CG       0.37E-01   11.5     0.00585954     -7364.2291581619 -1.17E+01
    24 OT LS       0.46E-01    4.6                    -7375.6842537814
    25 OT CG       0.46E-01   11.5     0.00565529     -7376.7226991714 -1.25E+01
    26 OT LS       0.26E-01    4.6                    -7379.2927757253
    27 OT CG       0.26E-01   11.5     0.00493208     -7384.0818371162 -7.36E+00
    28 OT LS       0.41E-01    4.6                    -7390.0723061001
    29 OT CG       0.41E-01   11.7     0.00391660     -7391.1497041935 -7.07E+00
    30 OT LS       0.37E-01    4.6                    -7394.9294638987
    31 OT CG       0.37E-01   12.1     0.00384518     -7394.8962179049 -3.75E+00
    32 OT LS       0.45E-01    5.0                    -7399.5368790647
    33 OT CG       0.45E-01   12.1     0.00345783     -7399.4989992101 -4.60E+00
    34 OT LS       0.44E-01    4.9                    -7402.2206672977
    35 OT CG       0.44E-01   12.5     0.00406478     -7402.2241886355 -2.73E+00
    36 OT LS       0.27E-01    4.6                    -7404.0657714731
    37 OT CG       0.27E-01   11.5     0.00291392     -7405.0168115532 -2.79E+00
    38 OT LS       0.78E-01    4.6                    -7407.5495032634
    39 OT CG       0.78E-01   11.5     0.00396080     -7408.2882143623 -3.27E+00
    40 OT LS       0.12E-01    4.6                    -7394.8277627979
    41 OT CG       0.12E-01   11.5     0.00435650     -7408.8394945416 -5.51E-01
    42 OT LS       0.19E-01    4.6                    -7410.9652302571
    43 OT CG       0.19E-01   11.7     0.00206825     -7411.3862314314 -2.55E+00
    44 OT LS       0.58E-01    4.6                    -7412.3629806908
    45 OT CG       0.58E-01   11.5     0.00196853     -7413.0500405097 -1.66E+00
    46 OT LS       0.54E-01    4.6                    -7414.2229058936
    47 OT CG       0.54E-01   11.5     0.00206614     -7414.2225241102 -1.17E+00
    48 OT LS       0.81E-01    4.6                    -7416.3328384385
    49 OT CG       0.81E-01   11.5     0.00215848     -7416.6730488503 -2.45E+00
    50 OT LS       0.38E-01    4.6                    -7416.2140610097
    51 OT CG       0.38E-01   11.5     0.00218964     -7418.0974073422 -1.42E+00
    52 OT LS       0.82E-01    4.6                    -7420.0938117914
    53 OT CG       0.82E-01   11.5     0.00249960     -7420.9249496597 -2.83E+00
    54 OT LS       0.54E-01    4.6                    -7422.5186931321
    55 OT CG       0.54E-01   11.5     0.00261482     -7422.9517816963 -2.03E+00
    56 OT LS       0.73E-01    4.6                    -7426.0672918714
    57 OT CG       0.73E-01   11.5     0.00246680     -7426.0790607682 -3.13E+00
    58 OT LS       0.49E-01    4.6                    -7427.2664415396
    59 OT CG       0.49E-01   11.6     0.00247259     -7427.6625736755 -1.58E+00
    60 OT LS       0.44E-01    4.6                    -7429.4306273184
    61 OT CG       0.44E-01   11.5     0.00182194     -7429.4280338687 -1.77E+00
    62 OT LS       0.67E-01    4.6                    -7430.8098961419
    63 OT CG       0.67E-01   11.5     0.00166140     -7430.9420646075 -1.51E+00
    64 OT LS       0.83E-01    4.6                    -7432.2599048798
    65 OT CG       0.83E-01   11.5     0.00174748     -7432.3239911101 -1.38E+00
    66 OT LS       0.63E-01    4.6                    -7433.5275840982
    67 OT CG       0.63E-01   11.5     0.00158338     -7433.6074291560 -1.28E+00
    68 OT LS       0.67E-01    4.6                    -7434.7727768215
    69 OT CG       0.67E-01   11.5     0.00145409     -7434.7700734336 -1.16E+00
    70 OT LS       0.85E-01    4.6                    -7435.8639480986
    71 OT CG       0.85E-01   11.5     0.00172177     -7435.9192196457 -1.15E+00
    72 OT LS       0.63E-01    4.6                    -7437.0290166455
    73 OT CG       0.63E-01   11.5     0.00154989     -7437.1629794790 -1.24E+00
    74 OT LS       0.89E-01    4.7                    -7438.5031581993
    75 OT CG       0.89E-01   11.5     0.00172521     -7438.5917316993 -1.43E+00
    76 OT LS       0.72E-01    4.6                    -7439.8299127343
    77 OT CG       0.72E-01   11.5     0.00175743     -7439.8882116810 -1.30E+00
    78 OT LS       0.62E-01    4.6                    -7441.1717788214
    79 OT CG       0.62E-01   11.5     0.00142707     -7441.1900973566 -1.30E+00
    80 OT LS       0.80E-01    7.7                    -7442.2595452633
    81 OT CG       0.80E-01   11.5     0.00138855     -7442.2915544827 -1.10E+00
    82 OT LS       0.75E-01    4.6                    -7443.1938014781
    83 OT CG       0.75E-01   11.5     0.00150703     -7443.1953278909 -9.04E-01
    84 OT LS       0.63E-01    4.6                    -7444.1334750454
    85 OT CG       0.63E-01   11.5     0.00118045     -7444.1546382247 -9.59E-01
    86 OT LS       0.90E-01    4.6                    -7444.9442960451
    87 OT CG       0.90E-01   11.5     0.00121026     -7445.0046283184 -8.50E-01
    88 OT LS       0.79E-01    4.6                    -7445.7188160902
    89 OT CG       0.79E-01   11.6     0.00133499     -7445.7328955241 -7.28E-01
    90 OT LS       0.67E-01    4.6                    -7446.5150355718
    91 OT CG       0.67E-01   11.5     0.00112168     -7446.5310493709 -7.98E-01
    92 OT LS       0.89E-01    4.6                    -7447.2526898891
    93 OT CG       0.89E-01   11.5     0.00111568     -7447.2879981749 -7.57E-01
    94 OT LS       0.80E-01    4.6                    -7447.9212080289
    95 OT CG       0.80E-01   11.5     0.00121619     -7447.9306569564 -6.43E-01
    96 OT LS       0.77E-01    4.6                    -7448.6872761167
    97 OT CG       0.77E-01   11.5     0.00106007     -7448.6866832818 -7.56E-01
    98 OT LS       0.80E-01    4.6                    -7449.3112544615
    99 OT CG       0.80E-01   11.5     0.00102507     -7449.3124429024 -6.26E-01
   100 OT LS       0.84E-01    4.6                    -7449.9036447659
   101 OT CG       0.84E-01   11.5     0.00104125     -7449.9034013773 -5.91E-01
   102 OT LS       0.84E-01    4.6                    -7450.5006172335
   103 OT CG       0.84E-01   11.6     0.00104421     -7450.5006285484 -5.97E-01
   104 OT LS       0.72E-01    4.6                    -7451.0197438901
   105 OT CG       0.72E-01   12.7     0.00092393     -7451.0313209028 -5.31E-01
   106 OT LS       0.86E-01    4.7                    -7451.5207491112
   107 OT CG       0.86E-01   11.9     0.00090491     -7451.5330994128 -5.02E-01
   108 OT LS       0.84E-01    5.2                    -7451.9888379800
   109 OT CG       0.84E-01   12.1     0.00092679     -7451.9896009209 -4.57E-01
   110 OT LS       0.81E-01    4.6                    -7452.4545735436
   111 OT CG       0.81E-01   11.5     0.00087356     -7452.4548651756 -4.65E-01
   112 OT LS       0.79E-01    4.6                    -7452.8666785174
   113 OT CG       0.79E-01   11.5     0.00083656     -7452.8667764837 -4.12E-01
   114 OT LS       0.86E-01    4.6                    -7453.2722911604
   115 OT CG       0.86E-01   11.5     0.00083414     -7453.2742190342 -4.07E-01
   116 OT LS       0.82E-01    4.6                    -7453.6551604311
   117 OT CG       0.82E-01   11.5     0.00083222     -7453.6561078310 -3.82E-01
   118 OT LS       0.82E-01    4.7                    -7454.0382424291
   119 OT CG       0.82E-01   11.5     0.00077760     -7454.0382196908 -3.82E-01
   120 OT LS       0.83E-01    4.6                    -7454.3804462582
   121 OT CG       0.83E-01   11.5     0.00076024     -7454.3805352650 -3.42E-01
   122 OT LS       0.87E-01    4.6                    -7454.7173157511
   123 OT CG       0.87E-01   11.5     0.00075219     -7454.7175956807 -3.37E-01
   124 OT LS       0.84E-01    4.6                    -7455.0343261210
   125 OT CG       0.84E-01   11.5     0.00074780     -7455.0346717255 -3.17E-01
   126 OT LS       0.80E-01    4.6                    -7455.3351341444
   127 OT CG       0.80E-01   11.5     0.00069395     -7455.3356768002 -3.01E-01
   128 OT LS       0.87E-01    4.6                    -7455.6169108951
   129 OT CG       0.87E-01   11.5     0.00068630     -7455.6186256813 -2.83E-01
   130 OT LS       0.85E-01    4.6                    -7455.8890184598
   131 OT CG       0.85E-01   11.5     0.00067425     -7455.8891521201 -2.71E-01
   132 OT LS       0.86E-01    4.6                    -7456.1513040942
   133 OT CG       0.86E-01   11.6     0.00066713     -7456.1513265563 -2.62E-01
   134 OT LS       0.82E-01    4.6                    -7456.3964642770
   135 OT CG       0.82E-01   11.5     0.00063185     -7456.3969624794 -2.46E-01
   136 OT LS       0.87E-01    4.6                    -7456.6313481643
   137 OT CG       0.87E-01   11.5     0.00061783     -7456.6321695575 -2.35E-01
   138 OT LS       0.86E-01    4.6                    -7456.8537563818
   139 OT CG       0.86E-01   11.5     0.00060837     -7456.8538026137 -2.22E-01
   140 OT LS       0.86E-01    4.6                    -7457.0677390635
   141 OT CG       0.86E-01   11.5     0.00059851     -7457.0677391657 -2.14E-01
   142 OT LS       0.83E-01    4.6                    -7457.2678110119
   143 OT CG       0.83E-01   11.5     0.00057129     -7457.2680348045 -2.00E-01
   144 OT LS       0.87E-01    4.6                    -7457.4599708546
   145 OT CG       0.87E-01   11.5     0.00055688     -7457.4604329621 -1.92E-01
   146 OT LS       0.87E-01    4.6                    -7457.6433187499
   147 OT CG       0.87E-01   11.5     0.00054778     -7457.6433179537 -1.83E-01
   148 OT LS       0.88E-01    4.7                    -7457.8202168028
   149 OT CG       0.88E-01   11.5     0.00054000     -7457.8202172664 -1.77E-01
   150 OT LS       0.85E-01    4.6                    -7457.9875950023
   151 OT CG       0.85E-01   11.5     0.00052125     -7457.9877062665 -1.67E-01
   152 OT LS       0.87E-01    4.6                    -7458.1476277337
   153 OT CG       0.87E-01   14.2     0.00050831     -7458.1477131461 -1.60E-01
   154 OT LS       0.88E-01    4.7                    -7458.3006114184
   155 OT CG       0.88E-01   11.5     0.00049932     -7458.3006139820 -1.53E-01
   156 OT LS       0.88E-01    4.6                    -7458.4480243122
   157 OT CG       0.88E-01   11.5     0.00049171     -7458.4480242381 -1.47E-01
   158 OT LS       0.87E-01    4.6                    -7458.5891065774
   159 OT CG       0.87E-01   11.5     0.00047741     -7458.5891284910 -1.41E-01
   160 OT LS       0.88E-01    4.6                    -7458.7242348416
   161 OT CG       0.88E-01   11.5     0.00046572     -7458.7242645160 -1.35E-01
   162 OT LS       0.88E-01    4.6                    -7458.8532458347
   163 OT CG       0.88E-01   11.6     0.00045770     -7458.8532465482 -1.29E-01
   164 OT LS       0.88E-01    4.6                    -7458.9779789497
   165 OT CG       0.88E-01   11.5     0.00044938     -7458.9779793986 -1.25E-01
   166 OT LS       0.89E-01    4.6                    -7459.0984675654
   167 OT CG       0.89E-01   11.5     0.00043950     -7459.0984682963 -1.20E-01
   168 OT LS       0.89E-01    4.6                    -7459.2141288768
   169 OT CG       0.89E-01   11.5     0.00043128     -7459.2141298569 -1.16E-01
   170 OT LS       0.89E-01    4.6                    -7459.3254071022
   171 OT CG       0.89E-01   11.5     0.00042517     -7459.3254072757 -1.11E-01
   172 OT LS       0.89E-01    4.6                    -7459.4338522166
   173 OT CG       0.89E-01   11.5     0.00041936     -7459.4338532913 -1.08E-01
   174 OT LS       0.89E-01    4.6                    -7459.5390602666
   175 OT CG       0.89E-01   11.5     0.00041245     -7459.5390610390 -1.05E-01
   176 OT LS       0.89E-01    4.6                    -7459.6413885801
   177 OT CG       0.89E-01   11.5     0.00040625     -7459.6413909735 -1.02E-01
   178 OT LS       0.89E-01    5.0                    -7459.7402789800
   179 OT CG       0.89E-01   12.1     0.00040019     -7459.7402808496 -9.89E-02
   180 OT LS       0.90E-01    4.8                    -7459.8370783833
   181 OT CG       0.90E-01   12.3     0.00039437     -7459.8370857359 -9.68E-02
   182 OT LS       0.90E-01    5.4                    -7459.9311589895
   183 OT CG       0.90E-01   11.5     0.00038936     -7459.9311590306 -9.41E-02
   184 OT LS       0.89E-01    4.6                    -7460.0224795574
   185 OT CG       0.89E-01   11.5     0.00038351     -7460.0224817028 -9.13E-02
   186 OT LS       0.90E-01    4.6                    -7460.1118021629
   187 OT CG       0.90E-01   11.5     0.00037884     -7460.1118071842 -8.93E-02
   188 OT LS       0.90E-01    4.6                    -7460.1990071251
   189 OT CG       0.90E-01   11.5     0.00037571     -7460.1990070647 -8.72E-02
   190 OT LS       0.89E-01    4.6                    -7460.2840826411
   191 OT CG       0.89E-01   11.5     0.00037038     -7460.2840884558 -8.51E-02
   192 OT LS       0.90E-01    4.6                    -7460.3670166665
   193 OT CG       0.90E-01   11.6     0.00036510     -7460.3670171110 -8.29E-02
   194 OT LS       0.90E-01    4.6                    -7460.4479183720
   195 OT CG       0.90E-01   11.5     0.00036011     -7460.4479191380 -8.09E-02
   196 OT LS       0.90E-01    4.6                    -7460.5268955377
   197 OT CG       0.90E-01   11.5     0.00035582     -7460.5268961782 -7.90E-02
   198 OT LS       0.90E-01    4.6                    -7460.6036831293
   199 OT CG       0.90E-01   11.5     0.00035100     -7460.6036846520 -7.68E-02
   200 OT LS       0.89E-01    4.6                    -7460.6778819897
   201 OT CG       0.89E-01   11.5     0.00034625     -7460.6778862491 -7.42E-02
   202 OT LS       0.90E-01    4.6                    -7460.7502510576
   203 OT CG       0.90E-01   11.5     0.00034038     -7460.7502512454 -7.24E-02
   204 OT LS       0.90E-01    4.6                    -7460.8208534685
   205 OT CG       0.90E-01   11.5     0.00033508     -7460.8208591942 -7.06E-02
   206 OT LS       0.91E-01    4.6                    -7460.8895762166
   207 OT CG       0.91E-01   11.6     0.00033092     -7460.8895771645 -6.87E-02
   208 OT LS       0.90E-01    4.6                    -7460.9557393886
   209 OT CG       0.90E-01   11.5     0.00032625     -7460.9557508299 -6.62E-02
   210 OT LS       0.90E-01    4.6                    -7461.0201094672
   211 OT CG       0.90E-01   11.5     0.00032085     -7461.0201094700 -6.44E-02
   212 OT LS       0.90E-01    4.6                    -7461.0826033371
   213 OT CG       0.90E-01   11.5     0.00031513     -7461.0826041383 -6.25E-02
   214 OT LS       0.91E-01    4.6                    -7461.1436020271
   215 OT CG       0.91E-01   11.5     0.00031062     -7461.1436099419 -6.10E-02
   216 OT LS       0.91E-01    4.6                    -7461.2026322634
   217 OT CG       0.91E-01   11.5     0.00030631     -7461.2026334321 -5.90E-02
   218 OT LS       0.90E-01    4.6                    -7461.2596231252
   219 OT CG       0.90E-01   11.5     0.00030108     -7461.2596259791 -5.70E-02
   220 OT LS       0.91E-01    4.6                    -7461.3149781570
   221 OT CG       0.91E-01   11.5     0.00029599     -7461.3149795989 -5.54E-02
   222 OT LS       0.91E-01    4.6                    -7461.3687028971
   223 OT CG       0.91E-01   11.7     0.00029176     -7461.3687037463 -5.37E-02
   224 OT LS       0.91E-01    4.6                    -7461.4208445170
   225 OT CG       0.91E-01   11.5     0.00028704     -7461.4208446088 -5.21E-02
   226 OT LS       0.91E-01    4.6                    -7461.4714811149
   227 OT CG       0.91E-01   13.0     0.00028315     -7461.4714816835 -5.06E-02
   228 OT LS       0.91E-01    4.6                    -7461.5203983381
   229 OT CG       0.91E-01   11.5     0.00027869     -7461.5204008513 -4.89E-02
   230 OT LS       0.90E-01    4.6                    -7461.5677529155
   231 OT CG       0.90E-01   11.5     0.00027443     -7461.5677529436 -4.74E-02
   232 OT LS       0.90E-01    4.6                    -7461.6135967347
   233 OT CG       0.90E-01   11.5     0.00026996     -7461.6135968654 -4.58E-02
   234 OT LS       0.91E-01    4.6                    -7461.6582909375
   235 OT CG       0.91E-01   11.5     0.00026578     -7461.6582933915 -4.47E-02
   236 OT LS       0.91E-01    4.6                    -7461.7017083221
   237 OT CG       0.91E-01   11.6     0.00026184     -7461.7017085314 -4.34E-02
   238 OT LS       0.91E-01    4.6                    -7461.7438066938
   239 OT CG       0.91E-01   11.5     0.00025833     -7461.7438067156 -4.21E-02
   240 OT LS       0.91E-01    4.6                    -7461.7848079274
   241 OT CG       0.91E-01   11.5     0.00025417     -7461.7848079353 -4.10E-02
   242 OT LS       0.91E-01    4.6                    -7461.8246087016
   243 OT CG       0.91E-01   11.5     0.00025077     -7461.8246089840 -3.98E-02
   244 OT LS       0.91E-01    4.6                    -7461.8632569186
   245 OT CG       0.91E-01   11.5     0.00024712     -7461.8632571387 -3.86E-02
   246 OT LS       0.91E-01    4.6                    -7461.9007417990
   247 OT CG       0.91E-01   11.5     0.00024351     -7461.9007418448 -3.75E-02
   248 OT LS       0.92E-01    4.6                    -7461.9373679376
   249 OT CG       0.92E-01   11.5     0.00023967     -7461.9373694312 -3.66E-02
   250 OT LS       0.92E-01    4.6                    -7461.9729721691
   251 OT CG       0.92E-01   11.6     0.00023681     -7461.9729725664 -3.56E-02
   252 OT LS       0.91E-01    5.4                    -7462.0074558419
   253 OT CG       0.91E-01   12.1     0.00023421     -7462.0074580189 -3.45E-02
   254 OT LS       0.91E-01    4.7                    -7462.0410036943
   255 OT CG       0.91E-01   13.6     0.00023048     -7462.0410047411 -3.35E-02
   256 OT LS       0.92E-01    4.6                    -7462.0738352966
   257 OT CG       0.92E-01   11.5     0.00022732     -7462.0738391495 -3.28E-02
   258 OT LS       0.92E-01    4.6                    -7462.1058346565
   259 OT CG       0.92E-01   11.5     0.00022450     -7462.1058347501 -3.20E-02
   260 OT LS       0.92E-01    4.6                    -7462.1370233079
   261 OT CG       0.92E-01   11.5     0.00022202     -7462.1370233269 -3.12E-02
   262 OT LS       0.92E-01    4.6                    -7462.1674484835
   263 OT CG       0.92E-01   11.5     0.00021922     -7462.1674486906 -3.04E-02
   264 OT LS       0.92E-01    4.6                    -7462.1971489802
   265 OT CG       0.92E-01   11.5     0.00021645     -7462.1971490388 -2.97E-02
   266 OT LS       0.92E-01    4.6                    -7462.2261120254
   267 OT CG       0.92E-01   11.6     0.00021367     -7462.2261120279 -2.90E-02
   268 OT LS       0.92E-01    4.6                    -7462.2543739921
   269 OT CG       0.92E-01   11.5     0.00021095     -7462.2543740338 -2.83E-02
   270 OT LS       0.92E-01    4.6                    -7462.2819244779
   271 OT CG       0.92E-01   11.5     0.00020838     -7462.2819244774 -2.76E-02
   272 OT LS       0.92E-01    4.6                    -7462.3088125034
   273 OT CG       0.92E-01   11.5     0.00020591     -7462.3088125007 -2.69E-02
   274 OT LS       0.92E-01    4.6                    -7462.3350719813
   275 OT CG       0.92E-01   11.5     0.00020360     -7462.3350719855 -2.63E-02
   276 OT LS       0.91E-01    4.6                    -7462.3606523552
   277 OT CG       0.91E-01   11.6     0.00020089     -7462.3606526982 -2.56E-02
   278 OT LS       0.92E-01    4.6                    -7462.3857282753
   279 OT CG       0.92E-01   11.5     0.00019842     -7462.3857294080 -2.51E-02
   280 OT LS       0.92E-01    4.6                    -7462.4102383224
   281 OT CG       0.92E-01   11.5     0.00019665     -7462.4102383854 -2.45E-02
   282 OT LS       0.92E-01    4.6                    -7462.4341022795
   283 OT CG       0.92E-01   11.5     0.00019414     -7462.4341040113 -2.39E-02
   284 OT LS       0.92E-01    4.6                    -7462.4574272092
   285 OT CG       0.92E-01   11.5     0.00019147     -7462.4574274059 -2.33E-02
   286 OT LS       0.92E-01    4.6                    -7462.4802858305
   287 OT CG       0.92E-01   11.5     0.00018899     -7462.4802870609 -2.29E-02
   288 OT LS       0.93E-01    4.6                    -7462.5025815664
   289 OT CG       0.93E-01   11.5     0.00018748     -7462.5025815809 -2.23E-02
   290 OT LS       0.92E-01    4.6                    -7462.5243750961
   291 OT CG       0.92E-01   11.5     0.00018569     -7462.5243760490 -2.18E-02
   292 OT LS       0.92E-01    4.6                    -7462.5457320444
   293 OT CG       0.92E-01   11.5     0.00018346     -7462.5457320614 -2.14E-02
   294 OT LS       0.92E-01    4.6                    -7462.5667044706
   295 OT CG       0.92E-01   11.5     0.00018109     -7462.5667052187 -2.10E-02
   296 OT LS       0.93E-01    4.6                    -7462.5872443977
   297 OT CG       0.93E-01   11.6     0.00017965     -7462.5872448549 -2.05E-02
   298 OT LS       0.92E-01    4.6                    -7462.6072673593
   299 OT CG       0.92E-01   11.5     0.00017814     -7462.6072691632 -2.00E-02
   300 OT LS       0.92E-01    8.8                    -7462.6269280733
   301 OT CG       0.92E-01   11.5     0.00017574     -7462.6269281015 -1.97E-02
   302 OT LS       0.93E-01    4.6                    -7462.6462116390
   303 OT CG       0.93E-01   11.5     0.00017385     -7462.6462128256 -1.93E-02
   304 OT LS       0.93E-01    4.6                    -7462.6650973088
   305 OT CG       0.93E-01   11.5     0.00017226     -7462.6650973113 -1.89E-02
   306 OT LS       0.92E-01    4.6                    -7462.6835780695
   307 OT CG       0.92E-01   11.5     0.00017081     -7462.6835782824 -1.85E-02
   308 OT LS       0.92E-01    4.6                    -7462.7017449126
   309 OT CG       0.92E-01   11.5     0.00016910     -7462.7017449112 -1.82E-02
   310 OT LS       0.92E-01    4.6                    -7462.7195643540
   311 OT CG       0.92E-01   11.7     0.00016719     -7462.7195643705 -1.78E-02
   312 OT LS       0.93E-01    4.6                    -7462.7370218526
   313 OT CG       0.93E-01   11.5     0.00016584     -7462.7370219216 -1.75E-02
   314 OT LS       0.92E-01    4.6                    -7462.7540997892
   315 OT CG       0.92E-01   11.5     0.00016419     -7462.7541004144 -1.71E-02
   316 OT LS       0.93E-01    4.6                    -7462.7709679894
   317 OT CG       0.93E-01   11.5     0.00016241     -7462.7709689935 -1.69E-02
   318 OT LS       0.93E-01    4.6                    -7462.7874359457
   319 OT CG       0.93E-01   11.5     0.00016100     -7462.7874360104 -1.65E-02
   320 OT LS       0.92E-01    4.6                    -7462.8035598423
   321 OT CG       0.92E-01   11.5     0.00015916     -7462.8035600769 -1.61E-02
   322 OT LS       0.93E-01    4.6                    -7462.8194212928
   323 OT CG       0.93E-01   11.5     0.00015767     -7462.8194219194 -1.59E-02
   324 OT LS       0.93E-01    4.6                    -7462.8350208773
   325 OT CG       0.93E-01   12.8     0.00015627     -7462.8350209451 -1.56E-02
   326 OT LS       0.93E-01    4.7                    -7462.8503325369
   327 OT CG       0.93E-01   12.1     0.00015477     -7462.8503325407 -1.53E-02
   328 OT LS       0.93E-01    6.2                    -7462.8652892790
   329 OT CG       0.93E-01   11.7     0.00015334     -7462.8652895427 -1.50E-02
   330 OT LS       0.93E-01    4.6                    -7462.8799807269
   331 OT CG       0.93E-01   11.5     0.00015176     -7462.8799807297 -1.47E-02
   332 OT LS       0.93E-01    4.6                    -7462.8943713814
   333 OT CG       0.93E-01   11.5     0.00015055     -7462.8943713806 -1.44E-02
   334 OT LS       0.92E-01    4.6                    -7462.9084663821
   335 OT CG       0.92E-01   11.5     0.00014920     -7462.9084666840 -1.41E-02
   336 OT LS       0.92E-01    4.6                    -7462.9223195125
   337 OT CG       0.92E-01   11.5     0.00014750     -7462.9223195207 -1.39E-02
   338 OT LS       0.93E-01    4.6                    -7462.9359356813
   339 OT CG       0.93E-01   11.5     0.00014607     -7462.9359360958 -1.36E-02
   340 OT LS       0.93E-01    4.6                    -7462.9493110391
   341 OT CG       0.93E-01   11.7     0.00014488     -7462.9493110679 -1.34E-02
   342 OT LS       0.93E-01    4.6                    -7462.9624207705
   343 OT CG       0.93E-01   11.5     0.00014350     -7462.9624209425 -1.31E-02
   344 OT LS       0.93E-01    4.6                    -7462.9753020371
   345 OT CG       0.93E-01   11.5     0.00014180     -7462.9753020718 -1.29E-02
   346 OT LS       0.93E-01    4.6                    -7462.9878913392
   347 OT CG       0.93E-01   11.5     0.00014020     -7462.9878913469 -1.26E-02
   348 OT LS       0.93E-01    4.6                    -7463.0002433373
   349 OT CG       0.93E-01   11.5     0.00013916     -7463.0002435004 -1.24E-02
   350 OT LS       0.92E-01    4.6                    -7463.0122885617
   351 OT CG       0.92E-01   11.5     0.00013778     -7463.0122898429 -1.20E-02
   352 OT LS       0.93E-01    4.6                    -7463.0241501313
   353 OT CG       0.93E-01   11.5     0.00013638     -7463.0241503782 -1.19E-02
   354 OT LS       0.93E-01    4.6                    -7463.0357745570
   355 OT CG       0.93E-01   11.5     0.00013487     -7463.0357745578 -1.16E-02
   356 OT LS       0.93E-01    4.7                    -7463.0471608951
   357 OT CG       0.93E-01   11.5     0.00013376     -7463.0471609191 -1.14E-02
   358 OT LS       0.92E-01    4.6                    -7463.0583066360
   359 OT CG       0.92E-01   11.5     0.00013246     -7463.0583069047 -1.11E-02
   360 OT LS       0.93E-01    4.6                    -7463.0692769598
   361 OT CG       0.93E-01   11.5     0.00013094     -7463.0692771075 -1.10E-02
   362 OT LS       0.93E-01    4.6                    -7463.0800682017
   363 OT CG       0.93E-01   11.5     0.00012972     -7463.0800686951 -1.08E-02
   364 OT LS       0.93E-01    4.6                    -7463.0906289344
   365 OT CG       0.93E-01   11.5     0.00012847     -7463.0906290362 -1.06E-02
   366 OT LS       0.93E-01    4.6                    -7463.1010235880
   367 OT CG       0.93E-01   11.5     0.00012731     -7463.1010237148 -1.04E-02
   368 OT LS       0.93E-01    4.6                    -7463.1112168021
   369 OT CG       0.93E-01   11.5     0.00012610     -7463.1112168209 -1.02E-02
   370 OT LS       0.93E-01    4.6                    -7463.1212117827
   371 OT CG       0.93E-01   11.7     0.00012493     -7463.1212117861 -9.99E-03
   372 OT LS       0.93E-01    4.6                    -7463.1309946439
   373 OT CG       0.93E-01   14.4     0.00012395     -7463.1309947230 -9.78E-03
   374 OT LS       0.93E-01    4.6                    -7463.1405995959
   375 OT CG       0.93E-01   11.5     0.00012291     -7463.1405996606 -9.60E-03
   376 OT LS       0.93E-01    4.6                    -7463.1500536540
   377 OT CG       0.93E-01   11.5     0.00012174     -7463.1500536612 -9.45E-03
   378 OT LS       0.93E-01    4.6                    -7463.1593383302
   379 OT CG       0.93E-01   11.5     0.00012084     -7463.1593383392 -9.28E-03
   380 OT LS       0.93E-01    4.6                    -7463.1684605184
   381 OT CG       0.93E-01   11.5     0.00011958     -7463.1684605905 -9.12E-03
   382 OT LS       0.93E-01    4.6                    -7463.1774203655
   383 OT CG       0.93E-01   11.5     0.00011838     -7463.1774204472 -8.96E-03
   384 OT LS       0.93E-01    4.6                    -7463.1862268040
   385 OT CG       0.93E-01   11.8     0.00011740     -7463.1862268757 -8.81E-03
   386 OT LS       0.93E-01    4.6                    -7463.1948748967
   387 OT CG       0.93E-01   11.5     0.00011623     -7463.1948749166 -8.65E-03
   388 OT LS       0.93E-01    4.6                    -7463.2033906642
   389 OT CG       0.93E-01   11.5     0.00011529     -7463.2033908359 -8.52E-03
   390 OT LS       0.93E-01    4.6                    -7463.2117695733
   391 OT CG       0.93E-01   11.5     0.00011444     -7463.2117695733 -8.38E-03
   392 OT LS       0.93E-01    4.6                    -7463.2200005484
   393 OT CG       0.93E-01   11.5     0.00011367     -7463.2200006193 -8.23E-03
   394 OT LS       0.93E-01    4.6                    -7463.2281062929
   395 OT CG       0.93E-01   11.5     0.00011287     -7463.2281063272 -8.11E-03
   396 OT LS       0.93E-01    4.6                    -7463.2360805395
   397 OT CG       0.93E-01   11.5     0.00011185     -7463.2360805759 -7.97E-03
   398 OT LS       0.93E-01    5.2                    -7463.2439423740
   399 OT CG       0.93E-01   12.7     0.00011094     -7463.2439424918 -7.86E-03
   400 OT LS       0.93E-01    4.7                    -7463.2516744514
   401 OT CG       0.93E-01   13.1     0.00011007     -7463.2516744517 -7.73E-03
   402 OT LS       0.93E-01    4.6                    -7463.2592770208
   403 OT CG       0.93E-01   11.5     0.00010918     -7463.2592770328 -7.60E-03
   404 OT LS       0.93E-01    4.6                    -7463.2667724321
   405 OT CG       0.93E-01   11.5     0.00010837     -7463.2667724619 -7.50E-03
   406 OT LS       0.93E-01    4.6                    -7463.2741496694
   407 OT CG       0.93E-01   11.5     0.00010766     -7463.2741496759 -7.38E-03
   408 OT LS       0.93E-01    4.6                    -7463.2814152250
   409 OT CG       0.93E-01   11.5     0.00010684     -7463.2814152586 -7.27E-03
   410 OT LS       0.93E-01    4.6                    -7463.2886044373
   411 OT CG       0.93E-01   11.5     0.00010587     -7463.2886045902 -7.19E-03
   412 OT LS       0.94E-01    4.6                    -7463.2956788301
   413 OT CG       0.94E-01   11.5     0.00010525     -7463.2956788584 -7.07E-03
   414 OT LS       0.93E-01    4.6                    -7463.3026436382
   415 OT CG       0.93E-01   11.8     0.00010459     -7463.3026437430 -6.96E-03
   416 OT LS       0.93E-01    4.6                    -7463.3094895113
   417 OT CG       0.93E-01   11.5     0.00010378     -7463.3094896527 -6.85E-03
   418 OT LS       0.93E-01    4.6                    -7463.3162342561
   419 OT CG       0.93E-01   11.5     0.00010301     -7463.3162342582 -6.74E-03
   420 OT LS       0.93E-01    4.6                    -7463.3228822696
   421 OT CG       0.93E-01   11.5     0.00010240     -7463.3228822704 -6.65E-03
   422 OT LS       0.93E-01    4.6                    -7463.3294590981
   423 OT CG       0.93E-01   11.5     0.00010157     -7463.3294591067 -6.58E-03
   424 OT LS       0.93E-01    4.6                    -7463.3359504281
   425 OT CG       0.93E-01   11.5     0.00010085     -7463.3359504952 -6.49E-03
   426 OT LS       0.93E-01    4.6                    -7463.3423483198
   427 OT CG       0.93E-01   11.5     0.00010009     -7463.3423483204 -6.40E-03
   428 OT LS       0.93E-01    4.6                    -7463.3486611559
   429 OT CG       0.93E-01   11.5     0.00009945     -7463.3486611709 -6.31E-03
   430 OT LS       0.93E-01    4.6                    -7463.3548869015
   431 OT CG       0.93E-01   11.6     0.00009887     -7463.3548869078 -6.23E-03
   432 OT LS       0.93E-01    4.6                    -7463.3610126149
   433 OT CG       0.93E-01   11.5     0.00009824     -7463.3610127401 -6.13E-03
   434 OT LS       0.93E-01    4.6                    -7463.3670727232
   435 OT CG       0.93E-01   11.5     0.00009747     -7463.3670727480 -6.06E-03
   436 OT LS       0.93E-01    4.6                    -7463.3730373909
   437 OT CG       0.93E-01   11.5     0.00009685     -7463.3730373914 -5.96E-03
   438 OT LS       0.93E-01    4.6                    -7463.3789402768
   439 OT CG       0.93E-01   11.5     0.00009641     -7463.3789403084 -5.90E-03
   440 OT LS       0.93E-01    4.6                    -7463.3847636105
   441 OT CG       0.93E-01   11.5     0.00009573     -7463.3847637218 -5.82E-03
   442 OT LS       0.93E-01    4.6                    -7463.3905315178
   443 OT CG       0.93E-01   11.5     0.00009503     -7463.3905316424 -5.77E-03
   444 OT LS       0.93E-01    4.6                    -7463.3962227775
   445 OT CG       0.93E-01   11.8     0.00009420     -7463.3962227835 -5.69E-03
   446 OT LS       0.94E-01    4.8                    -7463.4018286300
   447 OT CG       0.94E-01   13.3     0.00009378     -7463.4018286602 -5.61E-03
   448 OT LS       0.93E-01    4.7                    -7463.4073473093
   449 OT CG       0.93E-01   11.5     0.00009311     -7463.4073475628 -5.52E-03
   450 OT LS       0.93E-01    4.6                    -7463.4127802220
   451 OT CG       0.93E-01   11.5     0.00009239     -7463.4127802312 -5.43E-03
   452 OT LS       0.93E-01    4.6                    -7463.4181533934
   453 OT CG       0.93E-01   11.5     0.00009157     -7463.4181535038 -5.37E-03
   454 OT LS       0.94E-01    4.6                    -7463.4234508908
   455 OT CG       0.94E-01   11.5     0.00009115     -7463.4234509513 -5.30E-03
   456 OT LS       0.93E-01    4.6                    -7463.4286766871
   457 OT CG       0.93E-01   11.5     0.00009044     -7463.4286767829 -5.23E-03
   458 OT LS       0.94E-01    4.6                    -7463.4338396449
   459 OT CG       0.94E-01   11.5     0.00008986     -7463.4338397087 -5.16E-03
   460 OT LS       0.93E-01    4.9                    -7463.4389221687
   461 OT CG       0.93E-01   11.5     0.00008914     -7463.4389222110 -5.08E-03
   462 OT LS       0.93E-01    4.6                    -7463.4439269776
   463 OT CG       0.93E-01   11.5     0.00008857     -7463.4439269792 -5.00E-03
   464 OT LS       0.93E-01    4.6                    -7463.4488616564
   465 OT CG       0.93E-01   11.5     0.00008784     -7463.4488616659 -4.93E-03
   466 OT LS       0.93E-01    4.6                    -7463.4537253001
   467 OT CG       0.93E-01   11.5     0.00008726     -7463.4537253260 -4.86E-03
   468 OT LS       0.93E-01    4.6                    -7463.4585043171
   469 OT CG       0.93E-01   11.5     0.00008656     -7463.4585044075 -4.78E-03
   470 OT LS       0.93E-01    4.6                    -7463.4632221355
   471 OT CG       0.93E-01   12.0     0.00008592     -7463.4632221787 -4.72E-03
   472 OT LS       0.93E-01    4.9                    -7463.4678679911
   473 OT CG       0.93E-01   11.9     0.00008535     -7463.4678679929 -4.65E-03
   474 OT LS       0.93E-01    4.6                    -7463.4724585379
   475 OT CG       0.93E-01   12.6     0.00008492     -7463.4724585485 -4.59E-03
   476 OT LS       0.93E-01    4.6                    -7463.4769690489
   477 OT CG       0.93E-01   11.5     0.00008425     -7463.4769692981 -4.51E-03
   478 OT LS       0.93E-01    4.6                    -7463.4814291739
   479 OT CG       0.93E-01   11.5     0.00008352     -7463.4814292673 -4.46E-03
   480 OT LS       0.94E-01    4.6                    -7463.4858460775
   481 OT CG       0.94E-01   11.5     0.00008298     -7463.4858463287 -4.42E-03
   482 OT LS       0.94E-01    4.6                    -7463.4901941914
   483 OT CG       0.94E-01   11.5     0.00008250     -7463.4901942280 -4.35E-03
   484 OT LS       0.94E-01    4.6                    -7463.4944864664
   485 OT CG       0.94E-01   11.5     0.00008200     -7463.4944864729 -4.29E-03
   486 OT LS       0.93E-01    4.6                    -7463.4987254685
   487 OT CG       0.93E-01   11.5     0.00008135     -7463.4987254688 -4.24E-03
   488 OT LS       0.94E-01    4.6                    -7463.5029187484
   489 OT CG       0.94E-01   11.5     0.00008094     -7463.5029188511 -4.19E-03
   490 OT LS       0.94E-01    4.8                    -7463.5070564045
   491 OT CG       0.94E-01   11.5     0.00008048     -7463.5070564509 -4.14E-03
   492 OT LS       0.93E-01    4.6                    -7463.5111368483
   493 OT CG       0.93E-01   11.5     0.00008004     -7463.5111368726 -4.08E-03
   494 OT LS       0.93E-01    4.6                    -7463.5151669588
   495 OT CG       0.93E-01   11.5     0.00007948     -7463.5151669670 -4.03E-03
   496 OT LS       0.93E-01    4.6                    -7463.5191495569
   497 OT CG       0.93E-01   11.5     0.00007903     -7463.5191495759 -3.98E-03
   498 OT LS       0.93E-01    4.6                    -7463.5230848913
   499 OT CG       0.93E-01   11.5     0.00007861     -7463.5230848937 -3.94E-03
   500 OT LS       0.93E-01    4.6                    -7463.5269758464

  Leaving inner SCF loop after reaching   500 steps.


  Electronic density on regular grids:      -3303.9999970991        0.0000029009
  Core density on regular grids:             3303.9999997993       -0.0000002007
  Total charge density on r-space grids:        0.0000027002
  Total charge density g-space grids:           0.0000027002

  Overlap energy of the core charge distribution:               0.00000906606918
  Self energy of the core charge distribution:             -19206.29600403678342
  Core Hamiltonian energy:                                   5450.95095129422771
  Hartree energy:                                            8034.28505925672289
  Exchange-correlation energy:                              -1740.31447927297336
  Dispersion energy:                                           -2.15251215364334

  Total energy:                                             -7463.52697584638099

  outer SCF iter =    1 RMS gradient =   0.79E-04 energy =      -7463.5269758464

  ----------------------------------- OT ---------------------------------------
  Minimizer      : CG                  : conjugate gradient
  Preconditioner : FULL_ALL            : diagonalization, state selective
  Precond_solver : DEFAULT
  Line search    : 2PNT                : 2 energies, one gradient
  stepsize       :    0.15000000                  energy_gap     :    0.00100000
  eps_taylor     :   0.10000E-15                  max_taylor     :             4
  ----------------------------------- OT ---------------------------------------

  Step     Update method      Time    Convergence         Total energy    Change
  ------------------------------------------------------------------------------
     1 OT CG       0.15E+00   49.2     0.00053341     -7463.5269758470 -3.89E-03
     2 OT LS       0.25E+00    4.6                    -7463.9286546952
     3 OT CG       0.25E+00   11.5     0.00004098     -7464.0027487575 -4.76E-01
     4 OT LS       0.58E-01    4.6                    -7463.9962984777
     5 OT CG       0.58E-01   11.5     0.00001283     -7464.0034134775 -6.65E-04
     6 OT LS       0.80E-01    4.6                    -7464.0034961857
     7 OT CG       0.80E-01   11.5     0.00000406     -7464.0035029851 -8.95E-05
     8 OT LS       0.12E+00    4.6                    -7464.0035149886
     9 OT CG       0.12E+00   11.5     0.00000184     -7464.0035166937 -1.37E-05
    10 OT LS       0.84E-01    4.6                    -7464.0035182058
    11 OT CG       0.84E-01   11.5     0.00000084     -7464.0035186190 -1.93E-06

  *** SCF run converged in    11 steps ***


  Electronic density on regular grids:      -3303.9999970993        0.0000029007
  Core density on regular grids:             3303.9999997993       -0.0000002007
  Total charge density on r-space grids:        0.0000027000
  Total charge density g-space grids:           0.0000027000

  Overlap energy of the core charge distribution:               0.00000906606918
  Self energy of the core charge distribution:             -19206.29600403678342
  Core Hamiltonian energy:                                   5450.44578092068878
  Hartree energy:                                            8034.39223391411906
  Exchange-correlation energy:                              -1740.39302632946556
  Dispersion energy:                                           -2.15251215364334

  Total energy:                                             -7464.00351861901618

  outer SCF iter =    2 RMS gradient =   0.84E-06 energy =      -7464.0035186190
  outer SCF loop converged in   2 iterations or  511 steps


 ENERGY| Total FORCE_EVAL ( QS ) energy [a.u.]:            -7464.003519048005728

 ATOMIC FORCES in [a.u.]

 # Atom   Kind   Element          X              Y              Z
      1      1      Ti          0.00000000     0.00000000     0.00000000
      2      2      Si          0.00000000     0.00000000     0.00000000
      3      2      Si          0.00000000     0.00000000     0.00000000
      4      2      Si          0.00000000     0.00000000     0.00000000
      5      2      Si          0.00000000     0.00000000     0.00000000
      6      2      Si          0.00000000     0.00000000     0.00000000
      7      2      Si          0.00000000     0.00000000     0.00000000
      8      2      Si          0.00000000     0.00000000     0.00000000
      9      2      Si          0.00000000     0.00000000     0.00000000
     10      2      Si          0.00000000     0.00000000     0.00000000
     11      2      Si          0.00000000     0.00000000     0.00000000
     12      2      Si          0.00000000     0.00000000     0.00000000
     13      2      Si          0.00000000     0.00000000     0.00000000
     14      2      Si          0.00000000     0.00000000     0.00000000
     15      2      Si          0.00000000     0.00000000     0.00000000
     16      2      Si          0.00000000     0.00000000     0.00000000
     17      2      Si          0.00000000     0.00000000     0.00000000
     18      2      Si          0.00000000     0.00000000     0.00000000
     19      2      Si          0.00000000     0.00000000     0.00000000
     20      2      Si          0.00000000     0.00000000     0.00000000
     21      2      Si          0.00000000     0.00000000     0.00000000
     22      2      Si          0.00000000     0.00000000     0.00000000
     23      2      Si          0.00000000     0.00000000     0.00000000
     24      2      Si          0.00000000     0.00000000     0.00000000
     25      2      Si          0.00000000     0.00000000     0.00000000
     26      2      Si          0.00000000     0.00000000     0.00000000
     27      2      Si          0.00000000     0.00000000     0.00000000
     28      2      Si          0.00000000     0.00000000     0.00000000
     29      2      Si          0.00000000     0.00000000     0.00000000
     30      2      Si          0.00000000     0.00000000     0.00000000
     31      2      Si          0.00000000     0.00000000     0.00000000
     32      2      Si          0.00000000     0.00000000     0.00000000
     33      2      Si          0.00000000     0.00000000     0.00000000
     34      2      Si          0.00000000     0.00000000     0.00000000
     35      2      Si          0.00000000     0.00000000     0.00000000
     36      2      Si          0.00000000     0.00000000     0.00000000
     37      2      Si          0.00000000     0.00000000     0.00000000
     38      2      Si          0.00000000     0.00000000     0.00000000
     39      2      Si          0.00000000     0.00000000     0.00000000
     40      2      Si          0.00000000     0.00000000     0.00000000
     41      2      Si          0.00000000     0.00000000     0.00000000
     42      2      Si          0.00000000     0.00000000     0.00000000
     43      2      Si          0.00000000     0.00000000     0.00000000
     44      2      Si          0.00000000     0.00000000     0.00000000
     45      2      Si          0.00000000     0.00000000     0.00000000
     46      2      Si          0.00000000     0.00000000     0.00000000
     47      2      Si          0.00000000     0.00000000     0.00000000
     48      2      Si          0.00000000     0.00000000     0.00000000
     49      2      Si          0.00000000     0.00000000     0.00000000
     50      2      Si          0.00000000     0.00000000     0.00000000
     51      2      Si          0.00000000     0.00000000     0.00000000
     52      2      Si          0.00000000     0.00000000     0.00000000
     53      2      Si          0.00000000     0.00000000     0.00000000
     54      2      Si          0.00000000     0.00000000     0.00000000
     55      2      Si          0.00000000     0.00000000     0.00000000
     56      2      Si          0.00000000     0.00000000     0.00000000
     57      2      Si          0.00000000     0.00000000     0.00000000
     58      2      Si          0.00000000     0.00000000     0.00000000
     59      2      Si          0.00000000     0.00000000     0.00000000
     60      2      Si          0.00000000     0.00000000     0.00000000
     61      2      Si          0.00000000     0.00000000     0.00000000
     62      2      Si          0.00000000     0.00000000     0.00000000
     63      2      Si          0.00000000     0.00000000     0.00000000
     64      2      Si          0.00000000     0.00000000     0.00000000
     65      2      Si          0.00000000     0.00000000     0.00000000
     66      2      Si          0.00000000     0.00000000     0.00000000
     67      2      Si          0.00000000     0.00000000     0.00000000
     68      2      Si          0.00000000     0.00000000     0.00000000
     69      2      Si          0.00000000     0.00000000     0.00000000
     70      2      Si          0.00000000     0.00000000     0.00000000
     71      2      Si          0.00000000     0.00000000     0.00000000
     72      2      Si          0.00000000     0.00000000     0.00000000
     73      2      Si          0.00000000     0.00000000     0.00000000
     74      2      Si          0.00000000     0.00000000     0.00000000
     75      2      Si          0.00000000     0.00000000     0.00000000
     76      2      Si          0.00000000     0.00000000     0.00000000
     77      2      Si          0.00000000     0.00000000     0.00000000
     78      2      Si          0.00000000     0.00000000     0.00000000
     79      2      Si          0.00000000     0.00000000     0.00000000
     80      2      Si          0.00000000     0.00000000     0.00000000
     81      2      Si          0.00000000     0.00000000     0.00000000
     82      2      Si          0.00000000     0.00000000     0.00000000
     83      2      Si          0.00000000     0.00000000     0.00000000
     84      2      Si          0.00000000     0.00000000     0.00000000
     85      2      Si          0.00000000     0.00000000     0.00000000
     86      2      Si          0.00000000     0.00000000     0.00000000
     87      2      Si          0.00000000     0.00000000     0.00000000
     88      2      Si          0.00000000     0.00000000     0.00000000
     89      2      Si          0.00000000     0.00000000     0.00000000
     90      2      Si          0.00000000     0.00000000     0.00000000
     91      2      Si          0.00000000     0.00000000     0.00000000
     92      2      Si          0.00000000     0.00000000     0.00000000
     93      2      Si          0.00000000     0.00000000     0.00000000
     94      2      Si          0.00000000     0.00000000     0.00000000
     95      2      Si          0.00000000     0.00000000     0.00000000
     96      2      Si          0.00000000     0.00000000     0.00000000
     97      2      Si          0.00000000     0.00000000     0.00000000
     98      2      Si          0.00000000     0.00000000     0.00000000
     99      2      Si          0.00000000     0.00000000     0.00000000
    100      2      Si          0.00000000     0.00000000     0.00000000
    101      2      Si          0.00000000     0.00000000     0.00000000
    102      2      Si          0.00000000     0.00000000     0.00000000
    103      2      Si          0.00000000     0.00000000     0.00000000
    104      2      Si          0.00000000     0.00000000     0.00000000
    105      2      Si          0.00000000     0.00000000     0.00000000
    106      2      Si          0.00000000     0.00000000     0.00000000
    107      2      Si          0.00000000     0.00000000     0.00000000
    108      2      Si          0.00000000     0.00000000     0.00000000
    109      2      Si          0.00000000     0.00000000     0.00000000
    110      2      Si          0.00000000     0.00000000     0.00000000
    111      2      Si          0.00000000     0.00000000     0.00000000
    112      2      Si          0.00000000     0.00000000     0.00000000
    113      2      Si          0.00000000     0.00000000     0.00000000
    114      2      Si          0.00000000     0.00000000     0.00000000
    115      2      Si          0.00000000     0.00000000     0.00000000
    116      2      Si          0.00000000     0.00000000     0.00000000
    117      2      Si          0.00000000     0.00000000     0.00000000
    118      2      Si          0.00000000     0.00000000     0.00000000
    119      2      Si          0.00000000     0.00000000     0.00000000
    120      2      Si          0.00000000     0.00000000     0.00000000
    121      2      Si          0.00000000     0.00000000     0.00000000
    122      2      Si          0.00000000     0.00000000     0.00000000
    123      2      Si          0.00000000     0.00000000     0.00000000
    124      2      Si          0.00000000     0.00000000     0.00000000
    125      2      Si          0.00000000     0.00000000     0.00000000
    126      2      Si          0.00000000     0.00000000     0.00000000
    127      2      Si          0.00000000     0.00000000     0.00000000
    128      2      Si          0.00000000     0.00000000     0.00000000
    129      2      Si          0.00000000     0.00000000     0.00000000
    130      2      Si          0.00000000     0.00000000     0.00000000
    131      2      Si          0.00000000     0.00000000     0.00000000
    132      2      Si          0.00000000     0.00000000     0.00000000
    133      2      Si          0.00000000     0.00000000     0.00000000
    134      2      Si          0.00000000     0.00000000     0.00000000
    135      2      Si          0.00000000     0.00000000     0.00000000
    136      2      Si          0.00000000     0.00000000     0.00000000
    137      2      Si          0.00000000     0.00000000     0.00000000
    138      2      Si          0.00000000     0.00000000     0.00000000
    139      2      Si          0.00000000     0.00000000     0.00000000
    140      2      Si          0.00000000     0.00000000     0.00000000
    141      2      Si          0.00000000     0.00000000     0.00000000
    142      2      Si          0.00000000     0.00000000     0.00000000
    143      2      Si          0.00000000     0.00000000     0.00000000
    144      2      Si          0.00000000     0.00000000     0.00000000
    145      2      Si          0.00000000     0.00000000     0.00000000
    146      2      Si          0.00000000     0.00000000     0.00000000
    147      2      Si          0.00000000     0.00000000     0.00000000
    148      2      Si          0.00000000     0.00000000     0.00000000
    149      2      Si          0.00000000     0.00000000     0.00000000
    150      2      Si          0.00000000     0.00000000     0.00000000
    151      2      Si          0.00000000     0.00000000     0.00000000
    152      2      Si          0.00000000     0.00000000     0.00000000
    153      2      Si          0.00000000     0.00000000     0.00000000
    154      2      Si          0.00000000     0.00000000     0.00000000
    155      2      Si          0.00000000     0.00000000     0.00000000
    156      2      Si          0.00000000     0.00000000     0.00000000
    157      2      Si          0.00000000     0.00000000     0.00000000
    158      2      Si          0.00000000     0.00000000     0.00000000
    159      2      Si          0.00000000     0.00000000     0.00000000
    160      2      Si          0.00000000     0.00000000     0.00000000
    161      2      Si          0.00000000     0.00000000     0.00000000
    162      2      Si          0.00000000     0.00000000     0.00000000
    163      2      Si          0.00000000     0.00000000     0.00000000
    164      2      Si          0.00000000     0.00000000     0.00000000
    165      2      Si          0.00000000     0.00000000     0.00000000
    166      2      Si          0.00000000     0.00000000     0.00000000
    167      2      Si          0.00000000     0.00000000     0.00000000
    168      2      Si          0.00000000     0.00000000     0.00000000
    169      2      Si          0.00000000     0.00000000     0.00000000
    170      2      Si          0.00000000     0.00000000     0.00000000
    171      2      Si          0.00000000     0.00000000     0.00000000
    172      2      Si          0.00000000     0.00000000     0.00000000
    173      2      Si          0.00000000     0.00000000     0.00000000
    174      2      Si          0.00000000     0.00000000     0.00000000
    175      2      Si          0.00000000     0.00000000     0.00000000
    176      2      Si          0.00000000     0.00000000     0.00000000
    177      2      Si          0.00000000     0.00000000     0.00000000
    178      2      Si          0.00000000     0.00000000     0.00000000
    179      2      Si          0.00000000     0.00000000     0.00000000
    180      2      Si          0.00000000     0.00000000     0.00000000
    181      2      Si          0.00000000     0.00000000     0.00000000
    182      2      Si          0.00000000     0.00000000     0.00000000
    183      2      Si          0.00000000     0.00000000     0.00000000
    184      2      Si          0.00000000     0.00000000     0.00000000
    185      2      Si          0.00000000     0.00000000     0.00000000
    186      2      Si          0.00000000     0.00000000     0.00000000
    187      2      Si          0.00000000     0.00000000     0.00000000
    188      2      Si          0.00000000     0.00000000     0.00000000
    189      2      Si          0.00000000     0.00000000     0.00000000
    190      2      Si          0.00000000     0.00000000     0.00000000
    191      2      Si          0.00000000     0.00000000     0.00000000
    192      3      O           0.00000000     0.00000000     0.00000000
    193      3      O           0.00000000     0.00000000     0.00000000
    194      3      O           0.00000000     0.00000000     0.00000000
    195      3      O           0.00000000     0.00000000     0.00000000
    196      3      O           0.00000000     0.00000000     0.00000000
    197      3      O           0.00000000     0.00000000     0.00000000
    198      3      O           0.00000000     0.00000000     0.00000000
    199      3      O           0.00000000     0.00000000     0.00000000
    200      3      O           0.00000000     0.00000000     0.00000000
    201      3      O           0.00000000     0.00000000     0.00000000
    202      3      O           0.00000000     0.00000000     0.00000000
    203      3      O           0.00000000     0.00000000     0.00000000
    204      3      O           0.00000000     0.00000000     0.00000000
    205      3      O           0.00000000     0.00000000     0.00000000
    206      3      O           0.00000000     0.00000000     0.00000000
    207      3      O           0.00000000     0.00000000     0.00000000
    208      3      O           0.00000000     0.00000000     0.00000000
    209      3      O           0.00000000     0.00000000     0.00000000
    210      3      O           0.00000000     0.00000000     0.00000000
    211      3      O           0.00000000     0.00000000     0.00000000
    212      3      O           0.00000000     0.00000000     0.00000000
    213      3      O           0.00000000     0.00000000     0.00000000
    214      3      O           0.00000000     0.00000000     0.00000000
    215      3      O           0.00000000     0.00000000     0.00000000
    216      3      O           0.00000000     0.00000000     0.00000000
    217      3      O           0.00000000     0.00000000     0.00000000
    218      3      O           0.00000000     0.00000000     0.00000000
    219      3      O           0.00000000     0.00000000     0.00000000
    220      3      O           0.00000000     0.00000000     0.00000000
    221      3      O           0.00000000     0.00000000     0.00000000
    222      3      O           0.00000000     0.00000000     0.00000000
    223      3      O           0.00000000     0.00000000     0.00000000
    224      3      O           0.00000000     0.00000000     0.00000000
    225      3      O           0.00000000     0.00000000     0.00000000
    226      3      O           0.00000000     0.00000000     0.00000000
    227      3      O           0.00000000     0.00000000     0.00000000
    228      3      O           0.00000000     0.00000000     0.00000000
    229      3      O           0.00000000     0.00000000     0.00000000
    230      3      O           0.00000000     0.00000000     0.00000000
    231      3      O           0.00000000     0.00000000     0.00000000
    232      3      O           0.00000000     0.00000000     0.00000000
    233      3      O           0.00000000     0.00000000     0.00000000
    234      3      O           0.00000000     0.00000000     0.00000000
    235      3      O           0.00000000     0.00000000     0.00000000
    236      3      O           0.00000000     0.00000000     0.00000000
    237      3      O           0.00000000     0.00000000     0.00000000
    238      3      O           0.00000000     0.00000000     0.00000000
    239      3      O           0.00000000     0.00000000     0.00000000
    240      3      O           0.00000000     0.00000000     0.00000000
    241      3      O           0.00000000     0.00000000     0.00000000
    242      3      O           0.00000000     0.00000000     0.00000000
    243      3      O           0.00000000     0.00000000     0.00000000
    244      3      O           0.00000000     0.00000000     0.00000000
    245      3      O           0.00000000     0.00000000     0.00000000
    246      3      O           0.00000000     0.00000000     0.00000000
    247      3      O           0.00000000     0.00000000     0.00000000
    248      3      O           0.00000000     0.00000000     0.00000000
    249      3      O           0.00000000     0.00000000     0.00000000
    250      3      O           0.00000000     0.00000000     0.00000000
    251      3      O           0.00000000     0.00000000     0.00000000
    252      3      O           0.00000000     0.00000000     0.00000000
    253      3      O           0.00000000     0.00000000     0.00000000
    254      3      O           0.00000000     0.00000000     0.00000000
    255      3      O           0.00000000     0.00000000     0.00000000
    256      3      O           0.00000000     0.00000000     0.00000000
    257      3      O           0.00000000     0.00000000     0.00000000
    258      3      O           0.00000000     0.00000000     0.00000000
    259      3      O           0.00000000     0.00000000     0.00000000
    260      3      O           0.00000000     0.00000000     0.00000000
    261      3      O           0.00000000     0.00000000     0.00000000
    262      3      O           0.00000000     0.00000000     0.00000000
    263      3      O           0.00000000     0.00000000     0.00000000
    264      3      O           0.00000000     0.00000000     0.00000000
    265      3      O           0.00000000     0.00000000     0.00000000
    266      3      O           0.00000000     0.00000000     0.00000000
    267      3      O           0.00000000     0.00000000     0.00000000
    268      3      O           0.00000000     0.00000000     0.00000000
    269      3      O           0.00000000     0.00000000     0.00000000
    270      3      O           0.00000000     0.00000000     0.00000000
    271      3      O           0.00000000     0.00000000     0.00000000
    272      3      O           0.00000000     0.00000000     0.00000000
    273      3      O           0.00000000     0.00000000     0.00000000
    274      3      O           0.00000000     0.00000000     0.00000000
    275      3      O           0.00000000     0.00000000     0.00000000
    276      3      O           0.00000000     0.00000000     0.00000000
    277      3      O           0.00000000     0.00000000     0.00000000
    278      3      O           0.00000000     0.00000000     0.00000000
    279      3      O           0.00000000     0.00000000     0.00000000
    280      3      O           0.00000000     0.00000000     0.00000000
    281      3      O           0.00000000     0.00000000     0.00000000
    282      3      O           0.00000000     0.00000000     0.00000000
    283      3      O           0.00000000     0.00000000     0.00000000
    284      3      O           0.00000000     0.00000000     0.00000000
    285      3      O           0.00000000     0.00000000     0.00000000
    286      3      O           0.00000000     0.00000000     0.00000000
    287      3      O           0.00000000     0.00000000     0.00000000
    288      3      O           0.00000000     0.00000000     0.00000000
    289      3      O           0.00000000     0.00000000     0.00000000
    290      3      O           0.00000000     0.00000000     0.00000000
    291      3      O           0.00000000     0.00000000     0.00000000
    292      3      O           0.00000000     0.00000000     0.00000000
    293      3      O           0.00000000     0.00000000     0.00000000
    294      3      O           0.00000000     0.00000000     0.00000000
    295      3      O           0.00000000     0.00000000     0.00000000
    296      3      O           0.00000000     0.00000000     0.00000000
    297      3      O           0.00000000     0.00000000     0.00000000
    298      3      O           0.00000000     0.00000000     0.00000000
    299      3      O           0.00000000     0.00000000     0.00000000
    300      3      O           0.00000000     0.00000000     0.00000000
    301      3      O           0.00000000     0.00000000     0.00000000
    302      3      O           0.00000000     0.00000000     0.00000000
    303      3      O           0.00000000     0.00000000     0.00000000
    304      3      O           0.00000000     0.00000000     0.00000000
    305      3      O           0.00000000     0.00000000     0.00000000
    306      3      O           0.00000000     0.00000000     0.00000000
    307      3      O           0.00000000     0.00000000     0.00000000
    308      3      O           0.00000000     0.00000000     0.00000000
    309      3      O           0.00000000     0.00000000     0.00000000
    310      3      O           0.00000000     0.00000000     0.00000000
    311      3      O           0.00000000     0.00000000     0.00000000
    312      3      O           0.00000000     0.00000000     0.00000000
    313      3      O           0.00000000     0.00000000     0.00000000
    314      3      O           0.00000000     0.00000000     0.00000000
    315      3      O           0.00000000     0.00000000     0.00000000
    316      3      O           0.00000000     0.00000000     0.00000000
    317      3      O           0.00000000     0.00000000     0.00000000
    318      3      O           0.00000000     0.00000000     0.00000000
    319      3      O           0.00000000     0.00000000     0.00000000
    320      3      O           0.00000000     0.00000000     0.00000000
    321      3      O           0.00000000     0.00000000     0.00000000
    322      3      O           0.00000000     0.00000000     0.00000000
    323      3      O           0.00000000     0.00000000     0.00000000
    324      3      O           0.00000000     0.00000000     0.00000000
    325      3      O           0.00000000     0.00000000     0.00000000
    326      3      O           0.00000000     0.00000000     0.00000000
    327      3      O           0.00000000     0.00000000     0.00000000
    328      3      O           0.00000000     0.00000000     0.00000000
    329      3      O           0.00000000     0.00000000     0.00000000
    330      3      O           0.00000000     0.00000000     0.00000000
    331      3      O           0.00000000     0.00000000     0.00000000
    332      3      O           0.00000000     0.00000000     0.00000000
    333      3      O           0.00000000     0.00000000     0.00000000
    334      3      O           0.00000000     0.00000000     0.00000000
    335      3      O           0.00000000     0.00000000     0.00000000
    336      3      O           0.00000000     0.00000000     0.00000000
    337      3      O           0.00000000     0.00000000     0.00000000
    338      3      O           0.00000000     0.00000000     0.00000000
    339      3      O           0.00000000     0.00000000     0.00000000
    340      3      O           0.00000000     0.00000000     0.00000000
    341      3      O           0.00000000     0.00000000     0.00000000
    342      3      O           0.00000000     0.00000000     0.00000000
    343      3      O           0.00000000     0.00000000     0.00000000
    344      3      O           0.00000000     0.00000000     0.00000000
    345      3      O           0.00000000     0.00000000     0.00000000
    346      3      O           0.00000000     0.00000000     0.00000000
    347      3      O           0.00000000     0.00000000     0.00000000
    348      3      O           0.00000000     0.00000000     0.00000000
    349      3      O           0.00000000     0.00000000     0.00000000
    350      3      O           0.00000000     0.00000000     0.00000000
    351      3      O           0.00000000     0.00000000     0.00000000
    352      3      O           0.00000000     0.00000000     0.00000000
    353      3      O           0.00000000     0.00000000     0.00000000
    354      3      O           0.00000000     0.00000000     0.00000000
    355      3      O           0.00000000     0.00000000     0.00000000
    356      3      O           0.00000000     0.00000000     0.00000000
    357      3      O           0.00000000     0.00000000     0.00000000
    358      3      O           0.00000000     0.00000000     0.00000000
    359      3      O           0.00000000     0.00000000     0.00000000
    360      3      O           0.00000000     0.00000000     0.00000000
    361      3      O           0.00000000     0.00000000     0.00000000
    362      3      O           0.00000000     0.00000000     0.00000000
    363      3      O           0.00000000     0.00000000     0.00000000
    364      3      O           0.00000000     0.00000000     0.00000000
[...]
 flops  2043 x   256 x   667        5313627389952       0.0%    100.0%      0.0%
 flops  2038 x   256 x   675        5364198604800       0.0%    100.0%      0.0%
 flops  2041 x   256 x   675        5372094873600       0.0%    100.0%      0.0%
 flops  2043 x   256 x   680        5417191342080       0.0%    100.0%      0.0%
 flops  2043 x   256 x   160        5792083476480       0.0%    100.0%      0.0%
 flops  2043 x   276 x   675        5797465228800       0.0%    100.0%      0.0%
 flops   416 x   288 x   667        6130524082176       0.0%    100.0%      0.0%
 flops    13 x    32 x     5        6142268134080       0.0%    100.0%      0.0%
 flops     5 x    32 x    13        6142268134080       0.0%    100.0%      0.0%
 flops  2038 x   256 x   128        6163101908992       0.0%    100.0%      0.0%
 flops  2041 x   256 x   128        6172174188544       0.0%    100.0%      0.0%
 flops   416 x   288 x   680        6250009559040       0.0%    100.0%      0.0%
 flops  2043 x   276 x   128        6660895997952       0.0%    100.0%      0.0%
 flops   416 x   256 x   675        7352952422400       0.0%    100.0%      0.0%
 flops   416 x   288 x   128        7925592489984       0.0%    100.0%      0.0%
 flops    13 x    13 x   160        8431512048960       0.0%    100.0%      0.0%
 flops  2043 x   288 x   667        8966746220544       0.0%    100.0%      0.0%
 flops  2038 x   288 x   675        9052085145600       0.0%    100.0%      0.0%
 flops  2041 x   288 x   675        9065410099200       0.0%    100.0%      0.0%
 flops  2043 x   288 x   680        9141510389760       0.0%    100.0%      0.0%
 flops  2043 x   288 x   160        9774140866560       0.0%    100.0%      0.0%
 flops  2038 x   288 x   128       10400234471424       0.0%    100.0%      0.0%
 flops  2041 x   288 x   128       10415543943168       0.0%    100.0%      0.0%
 flops  2043 x   256 x   675       10754718105600       0.0%    100.0%      0.0%
 flops  2043 x   256 x   128       12356444749824       0.0%    100.0%      0.0%
 flops   416 x   288 x   675       12408107212800       0.0%    100.0%      0.0%
 flops    13 x    13 x   128       17987225704448       0.0%    100.0%      0.0%
 flops  2043 x   288 x   675       18148586803200       0.0%    100.0%      0.0%
 flops  2043 x   288 x   128       20851500515328       0.0%    100.0%      0.0%
 flops    13 x    32 x    13      111597497499072       0.0%    100.0%      0.0%
 flops inhomo. stacks             103881334029312     100.0%      0.0%      0.0%
 flops total                       626.159877E+12      16.6%     83.4%      0.0%
 flops max/rank                     27.330213E+12      16.6%     83.4%      0.0%
 matmuls inhomo. stacks                    295968     100.0%      0.0%      0.0%
 matmuls total                        14757217468       0.0%    100.0%      0.0%
 number of processed stacks              20179011       1.5%     98.5%      0.0%
 average stack size                                     1.0     742.2       0.0
 marketing flops                     1.056087E+15
 -------------------------------------------------------------------------------
 # multiplications                          12317
 max memory usage/rank               1.010635E+09
 # max total images/rank                        3
 # max 3D layers                                1
 # MPI messages exchanged                 5616552
 MPI messages size (bytes):
  total size                         9.975278E+12
  min size                           0.000000E+00
  max size                          11.375424E+06
  average size                       1.776050E+06
 MPI breakdown and total messages size (bytes):
             size <=      128               31800                        0
       128 < size <=     8192                   0                        0
      8192 < size <=    32768                1200                 39321600
     32768 < size <=   131072                 600                 23827200
    131072 < size <=  4194304             5354472            7435645916968
   4194304 < size <= 16777216              228480            2538687928000
  16777216 < size                               0                        0
 -------------------------------------------------------------------------------

 *** WARNING in dbcsr_mm.F:294 :: Using a non-square number of MPI ranks ***
 *** might lead to poor performance. Used ranks: 24 Suggested: 25 49     ***

 -------------------------------------------------------------------------------
 -                                                                             -
 -                      DBCSR MESSAGE PASSING PERFORMANCE                      -
 -                                                                             -
 -------------------------------------------------------------------------------
 ROUTINE             CALLS      AVE VOLUME [Bytes]
 MP_Bcast              142                     12.
 MP_Allreduce        62221                    114.
 MP_Alltoall         54659                 767262.
 MP_ISend           566952                 800455.
 MP_IRecv           557910                 807298.
 -------------------------------------------------------------------------------

 -------------------------------------------------------------------------------
 -                                                                             -
 -                                GRID STATISTICS                              -
 -                                                                             -
 -------------------------------------------------------------------------------
 LP    KERNEL             BACKEND                              COUNT     PERCENT
 4     collocate ortho    REF                              249404266      49.50%
 4     integrate ortho    REF                              124702133      24.75%
 3     collocate ortho    REF                               56736586      11.26%
 3     integrate ortho    REF                               28368293       5.63%
 2     collocate ortho    REF                               15034024       2.98%
 7     integrate ortho    REF                               14050869       2.79%
 2     integrate ortho    REF                                7517012       1.49%
 6     integrate ortho    REF                                3212052       0.64%
 5     integrate ortho    REF                                1627490       0.32%
 5     collocate ortho    REF                                1559594       0.31%
 0     collocate general  REF                                 780864       0.15%
 3     integrate general  REF                                 764928       0.15%
 8     integrate ortho    REF                                  87832       0.02%
 6     collocate ortho    REF                                  30672       0.01%
 9     integrate ortho    REF                                   1728       0.00%
 -------------------------------------------------------------------------------

 MEMORY| Estimated peak process memory [MiB]                                 964

 -------------------------------------------------------------------------------
 -                                                                             -
 -                         MESSAGE PASSING PERFORMANCE                         -
 -                                                                             -
 -------------------------------------------------------------------------------

 ROUTINE             CALLS      AVE VOLUME [Bytes]
 MP_Group                5
 MP_Bcast            36176                 233887.
 MP_Allreduce        96658                   1235.
 MP_Sync               725
 MP_Alltoall         14612               34003618.
 MP_SendRecv          4416                  16252.
 MP_ISendRecv        91494                 127093.
 MP_Wait            180691
 MP_ISend            79624                 803277.
 MP_IRecv            79624                 803609.
 MP_Recv              6446                1398895.
 -------------------------------------------------------------------------------


 -------------------------------------------------------------------------------
 -                                                                             -
 -                           R E F E R E N C E S                               -
 -                                                                             -
 -------------------------------------------------------------------------------
 
 CP2K version 9.1, the CP2K developers group (2021).
 CP2K is freely available from https://www.cp2k.org/ .

 Kuehne,Thomas D.; Iannuzzi,Marcella; Del Ben,Mauro;
 Rybkin,Vladimir V.; Seewald,Patrick; Stein,Frederick; Laino,Teodoro;
 Khaliullin,Rustam Z.; Schuett,Ole; Schiffmann,Florian; Golze,Dorothea;
 Wilhelm,Jan; Chulkov,Sergey; Bani-Hashemian,Mohammad Hossein;
 Weber,Valery; Borstnik,Urban; Taillefumier,Mathieu;
 Jakobovits,Alice Shoshana; Lazzaro,Alfio; Pabst,Hans; Mueller,Tiziano;
 Schade,Robert; Guidon,Manuel; Andermatt,Samuel; Holmberg,Nico;
 Schenter,Gregory K.; Hehn,Anna; Bussy,Augustin; Belleflamme,Fabian;
 Tabacchi,Gloria; Gloess,Andreas; Lass,Michael; Bethune,Iain;
 Mundy,Christopher J.; Plessl,Christian; Watkins,Matt;
 VandeVondele,Joost; Krack,Matthias; Hutter,Juerg. 
 The Journal of Chemical Physics, 152 (19), (2020). 
 CP2K: An electronic structure and molecular dynamics software package -
 Quickstep: Efficient and accurate electronic structure calculations.
 https://doi.org/10.1063/5.0007045

 Goerigk, Lars; Hansen, Andreas; Bauer, Christoph; Ehrlich, Stephan;
 Najibi, Asim; Grimme, Stefan. , 19 (48), (2017). 
 A look at the density functional theory zoo with the advanced GMTKN55 database
 for general main group thermochemistry, kinetics and noncovalent interactions.
 https://doi.org/10.1039/C7CP04913G

 Schuett, Ole; Messmer, Peter; Hutter, Juerg; VandeVondele, Joost. 
 Electronic Structure Calculations on Graphics Processing Units, John
 Wiley & Sons, Ltd, 173-190 (2016). 
 GPU-Accelerated Sparse Matrix-Matrix Multiplication for
 Linear Scaling Density Functional Theory.
 https://doi.org/10.1002/9781118670712.ch8

 Heinecke, A; Henry, G; Hutchinson, M; Pabst, H. 
 Proceedings of Intl. Supercomputing Conference, 981-991 (2016). 
 LIBXSMM: Accelerating Small Matrix Multiplications
 by Runtime Code Generation.
 https://doi.org/10.1109/SC.2016.83

 Borstnik, U; VandeVondele, J; Weber, V; Hutter, J. 
 PARALLEL COMPUTING, 40 (5-6), 47-58 (2014). 
 Sparse matrix multiplication: The distributed block-compressed sparse
 row library.
 https://doi.org/10.1016/j.parco.2014.03.012

 Hutter, J; Iannuzzi, M; Schiffmann, F; VandeVondele, J. 
 WIREs Comput Mol Sci., 4 (1), 15-25 (2014). 
 CP2K: atomistic simulations of condensed matter systems.
 https://doi.org/10.1002/wcms.1159

 Grimme, S; Ehrlich, S; Goerigk, L. 
 JOURNAL OF COMPUTATIONAL CHEMISTRY, 32, 1456 (2011). 
 Effect of the damping function in dispersion corrected density functional theory.
 https://doi.org/10.1002/jcc.21759

 Grimme, S; Antony, J; Ehrlich, S; Krieg, H. 
 JOURNAL OF CHEMICAL PHYSICS, 132 (15), 154104 (2010). 
 A consistent and accurate ab initio parametrization of density
 functional dispersion correction (DFT-D) for the 94 elements H-Pu.
 https://doi.org/10.1063/1.3382344

 VandeVondele, J; Hutter, J. 
 JOURNAL OF CHEMICAL PHYSICS, 127 (11), 114105 (2007). 
 Gaussian basis sets for accurate calculations on molecular systems in
 gas and condensed phases.
 https://doi.org/10.1063/1.2770708

 Kuhne, TD; Krack, M; Mohamed, FR; Parrinello, M. 
 PHYSICAL REVIEW LETTERS, 98 (6), 066401 (2007). 
 Efficient and accurate Car-Parrinello-like approach to
 Born-Oppenheimer molecular dynamics.
 https://doi.org/10.1103/PhysRevLett.98.066401

 Krack, M. 
 THEORETICAL CHEMISTRY ACCOUNTS, 114 (1-3), 145-152 (2005). 
 Pseudopotentials for H to Kr optimized for gradient-corrected
 exchange-correlation functionals.
 https://doi.org/10.1007/s00214-005-0655-y

 VandeVondele, J; Krack, M; Mohamed, F; Parrinello, M; Chassaing, T;
 Hutter, J. COMPUTER PHYSICS COMMUNICATIONS, 167 (2), 103-128 (2005). 
 QUICKSTEP: Fast and accurate density functional calculations using a
 mixed Gaussian and plane waves approach.
 https://doi.org/10.1016/j.cpc.2004.12.014

 Frigo, M; Johnson, SG. 
 PROCEEDINGS OF THE IEEE, 93 (2), 216-231 (2005). 
 The design and implementation of FFTW3.
 https://doi.org/10.1109/JPROC.2004.840301

 Kolafa, J. 
 JOURNAL OF COMPUTATIONAL CHEMISTRY, 25 (3), 335-342 (2004). 
 Time-reversible always stable predictor-corrector method for
 molecular dynamics of polarizable molecules.
 https://doi.org/10.1002/jcc.10385

 VandeVondele, J; Hutter, J. 
 JOURNAL OF CHEMICAL PHYSICS, 118 (10), 4365-4369 (2003). 
 An efficient orbital transformation method for electronic structure
 calculations.
 https://doi.org/10.1063/1.1543154

 Hartwigsen, C; Goedecker, S; Hutter, J. 
 PHYSICAL REVIEW B, 58 (7), 3641-3662 (1998). 
 Relativistic separable dual-space Gaussian pseudopotentials from H to Rn.
 https://doi.org/10.1103/PhysRevB.58.3641

 Lippert, G; Hutter, J; Parrinello, M. 
 MOLECULAR PHYSICS, 92 (3), 477-487 (1997). 
 A hybrid Gaussian and plane wave density functional scheme.
 https://doi.org/10.1080/002689797170220

 Perdew, JP; Burke, K; Ernzerhof, M. 
 PHYSICAL REVIEW LETTERS, 77 (18), 3865-3868 (1996). 
 Generalized gradient approximation made simple.
 https://doi.org/10.1103/PhysRevLett.77.3865

 Goedecker, S; Teter, M; Hutter, J. 
 PHYSICAL REVIEW B, 54 (3), 1703-1710 (1996). 
 Separable dual-space Gaussian pseudopotentials.
 https://doi.org/10.1103/PhysRevB.54.1703


 -------------------------------------------------------------------------------
 -                                                                             -
 -                                T I M I N G                                  -
 -                                                                             -
 -------------------------------------------------------------------------------
 SUBROUTINE                       CALLS  ASD         SELF TIME        TOTAL TIME
                                MAXIMUM       AVERAGE  MAXIMUM  AVERAGE  MAXIMUM
 CP2K                                 1  1.0    0.033    0.048 9265.585 9265.611
 cp_geo_opt                           1  2.0    0.001    0.003 9264.120 9264.166
 geoopt_bfgs                          1  3.0    0.257    0.289 9264.119 9264.166
 cp_eval_at                          49  4.0    0.011    0.081 9228.729 9228.773
 qs_forces                           48  5.0    0.016    0.017 9162.965 9162.993
 qs_energies                         49  6.0    0.006    0.008 8658.552 8658.795
 scf_env_do_scf                      49  7.0    0.003    0.006 8304.459 8304.524
 scf_env_do_scf_inner_loop          803  8.0    0.019    0.065 6413.144 6423.397
 rebuild_ks_matrix                  851  9.8    0.004    0.005 3252.575 3254.722
 qs_ks_build_kohn_sham_matrix       851 10.8    0.125    0.147 3252.570 3254.718
 qs_ks_update_qs_env                853  9.0    0.007    0.007 2806.789 2808.740
 dbcsr_multiply_generic           12317 13.7    0.952    1.010 2246.387 2257.294
 qs_scf_new_mos                     803  9.0    0.006    0.007 2128.996 2134.655
 qs_scf_loop_do_ot                  803 10.0    0.007    0.009 2128.990 2134.649
 ot_scf_mini                        803 11.0    0.038    0.043 1982.889 1985.335
 multiply_cannon                  12317 14.7    1.318    1.519 1903.727 1935.828
 init_scf_loop                       50  8.0    0.003    0.004 1879.761 1879.818
 multiply_cannon_loop             12317 15.7    1.997    2.261 1840.453 1871.391
 qs_rho_update_rho                  852  9.1    0.005    0.006 1841.814 1845.824
 calculate_rho_elec                 852 10.1    3.718    3.858 1841.810 1845.820
 sum_up_and_integrate               474 11.7    2.298    2.360 1645.187 1645.684
 integrate_v_rspace                 474 12.7    0.020    0.022 1642.888 1643.369
 prepare_preconditioner              50  9.0    0.001    0.001 1585.585 1586.102
 multiply_cannon_multrec         147804 16.7 1474.700 1537.943 1474.898 1538.152
 make_preconditioner                 50 10.0    0.002    0.002 1534.648 1534.973
 make_full_all                       50 11.0    0.084    0.111 1490.128 1491.235
 grid_integrate_task_list           474 13.7 1414.048 1421.759 1414.048 1421.759
 grid_collocate_task_list           852 11.1 1359.745 1392.819 1359.745 1392.819
 qs_vxc_create                      851 11.8    0.018    0.021 1316.234 1316.796
 pw_transfer                      14156 13.3    1.138    1.279 1213.670 1228.091
 fft_wrap_pw1pw2                  12454 14.4    0.171    0.193 1195.368 1209.687
 ot_mini                            803 12.0    0.006    0.008 1180.189 1182.449
 fft_wrap_pw1pw2_180               7150 15.6  101.511  103.452 1156.359 1173.201
 cp_fm_syevd                        720 13.7    0.014    0.020 1091.203 1092.016
 cp_fm_syevd_base                   720 14.7 1083.977 1084.157 1083.977 1084.157
 xc_rho_set_and_dset_create         851 13.8    6.974    7.051  912.859  960.688
 fft3d_ps                         12454 16.4  505.388  513.021  897.327  910.184
 xc_vxc_pw_create                   474 12.7   31.598   35.275  893.117  893.676
 apply_preconditioner_dbcsr         476 14.0    0.001    0.002  680.210  684.616
 apply_all                          476 15.0    0.822    0.868  680.208  684.615
 ot_new_cg_direction                426 13.0    0.009    0.011  618.987  619.004
 qs_ot_get_derivative               426 13.0    0.006    0.018  556.967  559.341
 mp_waitall_1                    790819 17.6  447.961  531.037  447.961  531.037
 density_rs2pw                      852 11.1    0.063    0.074  461.481  482.079
 xc_functional_eval                 851 14.8    0.012    0.015  419.170  467.124
 pbe_lda_eval                       851 15.8  419.158  467.112  419.158  467.112
 qs_ks_update_qs_env_forces          48  6.0    0.000    0.000  448.839  448.999
 multiply_cannon_metrocomm3      147804 16.7    0.519    0.610  353.608  438.862
 xc_exc_calc                        377 13.0    1.595    1.607  423.099  423.122
 qs_ot_get_p                        853 11.9    0.007    0.010  334.452  338.643
 rs_pw_transfer                    6727 13.0    0.097    0.107  265.325  290.345
 init_scf_run                        49  7.0    0.002    0.003  268.531  268.542
 scf_env_initial_rho_setup           49  8.0    0.001    0.002  268.529  268.540
 wfi_extrapolate                     49  9.0    0.007    0.009  263.859  263.866
 cp_gemm                            808 10.2    0.003    0.003  259.443  261.395
 cp_gemm_fm_gemm                    808 11.2    0.003    0.004  259.441  261.393
 cp_fm_gemm                         808 12.2  259.438  261.390  259.438  261.390
 qs_ot_get_orbitals                 803 12.0    0.006    0.008  254.146  255.779
 make_m2s                         24634 14.7    0.930    1.040  252.656  255.471
 x_to_yz                           6249 18.1  188.949  190.875  251.300  255.292
 qs_ot_get_derivative_diag          260 14.0    0.009    0.011  226.057  227.566
 cp_fm_cholesky_reduce               50 12.0  206.499  206.867  206.499  206.867
 potential_pw2rs                    474 13.7    0.172    0.251  200.660  201.030
 -------------------------------------------------------------------------------

 The number of warnings for this run is : 2
 
 -------------------------------------------------------------------------------
  **** **** ******  **  PROGRAM ENDED AT                 2022-09-04 20:23:01.727
 ***** ** ***  *** **   PROGRAM RAN ON             node1036.palmetto.clemson.edu
 **    ****   ******    PROGRAM RAN BY                                   xiutinc
 ***** **    ** ** **   PROGRAM PROCESS ID                               3870323
  **** **  *******  **  PROGRAM STOPPED IN    /scratch1/xiutinc/CP2K-96994.pbs02
